version 3
run General-0-20230527-17:23:48-72164
attr configname General
attr datetime 20230527-17:23:48
attr datetimef 20230527-172348
attr experiment General
attr inifile omnetpp.ini
attr iterationvars ""
attr iterationvarsd ""
attr iterationvarsf ""
attr measurement ""
attr network Network
attr processid 72164
attr repetition 0
attr replication #0
attr resultdir results
attr runnumber 0
attr seedset 0
config network Network
config sim-time-limit 2s
config Network.comMoudle[0].appL.applIsMaster true
config Network.comMoudle[1].appL.applIsMaster false
config Network.node[2].applIsMaster false
config record-eventlog true

vector 0 Network.comMoudle[0].appL "" ETV
vector 1 Network.comMoudle[0].appL "" ETV
0	0	0	3
0	0	0	3
0	13	0.08	3
0	13	0.08	3
0	26	0.16	3
0	26	0.16	3
0	39	0.24	2
0	39	0.24	3
0	52	0.32	3
0	52	0.32	3
0	65	0.4	2
0	65	0.4	1
0	78	0.48	1
0	78	0.48	1
0	91	0.56	3
0	91	0.56	1
0	104	0.64	1
0	104	0.64	3
0	117	0.72	3
0	117	0.72	3
0	130	0.8	1
0	130	0.8	1
0	143	0.88	3
0	143	0.88	3
0	156	0.96	3
0	156	0.96	1
0	169	1.04	3
0	169	1.04	1
0	182	1.12	1
0	182	1.12	2
0	195	1.2	3
0	195	1.2	1
0	208	1.28	2
0	208	1.28	1
0	221	1.36	2
0	221	1.36	1
0	234	1.44	2
0	234	1.44	3
0	247	1.52	1
0	247	1.52	3
0	260	1.6	1
0	260	1.6	1
0	273	1.68	2
0	273	1.68	3
0	286	1.76	2
0	286	1.76	2
0	299	1.84	2
0	299	1.84	1
0	312	1.92	3
0	312	1.92	2
0	325	2	2
0	325	2	1
1	9	0.030094700983	0.030094700983
1	12	0.030288478078	0.030288478078
1	22	0.110271988671	0.030271988671
1	25	0.110285257068	0.030285257068
1	35	0.190092284228	0.030092284228
1	38	0.190125100475	0.030125100475
1	48	0.26016843116	0.02016843116
1	51	0.270397632883	0.030397632883
1	61	0.350102620275	0.030102620275
1	64	0.350163469806	0.030163469806
1	74	0.410078277042	0.010078277042
1	77	0.420267447048	0.020267447048
1	87	0.490098734009	0.010098734009
1	90	0.490317367602	0.010317367602
1	100	0.570174506921	0.010174506921
1	103	0.590179963218	0.030179963218
1	113	0.650186327787	0.010186327787
1	116	0.670382266178	0.030382266178
1	126	0.750310322766	0.030310322766
1	129	0.750338363094	0.030338363094
1	139	0.810089660534	0.010089660534
1	142	0.810256343316	0.010256343316
1	152	0.910124739937	0.030124739937
1	155	0.91019079421	0.03019079421
1	165	0.970145897637	0.010145897637
1	168	0.990075634452	0.030075634452
1	178	1.050295559141	0.010295559141
1	181	1.070213018175	0.030213018175
1	191	1.130097925046	0.010097925046
1	194	1.140230530607	0.020230530607
1	204	1.210223026208	0.010223026208
1	207	1.230185835129	0.030185835129
1	217	1.290191251214	0.010191251214
1	220	1.300285599504	0.020285599504
1	230	1.370223813435	0.010223813435
1	233	1.380281733476	0.020281733476
1	243	1.460095233511	0.020095233511
1	246	1.470396370158	0.030396370158
1	256	1.530056085003	0.010056085003
1	259	1.550128439152	0.030128439152
1	269	1.610287642419	0.010287642419
1	272	1.610325538744	0.010325538744
1	282	1.700234614101	0.020234614101
1	285	1.710115243562	0.030115243562
1	295	1.780156806168	0.020156806168
1	298	1.780271051424	0.020271051424
1	308	1.850132169883	0.010132169883
1	311	1.860200226511	0.020200226511
1	321	1.940326186746	0.020326186746
1	324	1.950156805064	0.030156805064

