version 3
run General-0-20230608-23:16:55-27012
attr configname General
attr datetime 20230608-23:16:55
attr datetimef 20230608-231655
attr experiment General
attr inifile omnetpp.ini
attr iterationvars ""
attr iterationvarsd ""
attr iterationvarsf ""
attr measurement ""
attr network Lin
attr processid 27012
attr repetition 0
attr replication #0
attr resultdir results
attr runnumber 0
attr seedset 0
config network Lin
config num-rngs 4
config seed-0-mt 0
config seed-1-mt 1
config seed-2-mt 2
config seed-3-mt 3
config sim-time-limit 60s

vector 0 Lin.master "" ETV
0	1	0.01	37
0	53	0.02	12
0	105	0.03	48
0	157	0.04	9
0	209	0.05	11
0	261	0.06	45
0	313	0.07	50
0	367	0.08	0
0	419	0.09	1
0	471	0.1	2
0	523	0.11	3
0	575	0.12	16
0	627	0.13	1
0	679	0.14	57
0	732	0.15	6
0	784	0.16	25
0	836	0.17	20
0	888	0.18	37
0	940	0.19	18
0	992	0.2	20
0	1044	0.21	52
0	1099	0.22	8
0	1151	0.23	9
0	1203	0.24	10
0	1255	0.25	11
0	1307	0.26	4
0	1359	0.27	23
0	1411	0.28	57
0	1466	0.29	28
0	1518	0.3	29
0	1570	0.31	30
0	1622	0.32	31
0	1674	0.33	30
0	1726	0.34	32
0	1778	0.35	56
0	1831	0.36	13
0	1883	0.37	9
0	1935	0.38	7
0	1987	0.39	22
0	2039	0.4	1
0	2091	0.41	0
0	2143	0.42	51
0	2197	0.43	4
0	2249	0.44	5
0	2301	0.45	6
0	2353	0.46	7
0	2405	0.47	8
0	2457	0.48	24
0	2509	0.49	53
0	2562	0.5	8
0	2614	0.51	30
0	2666	0.52	7
0	2718	0.53	3
0	2770	0.54	6
0	2822	0.55	21
0	2874	0.56	51
0	2927	0.57	3
0	2979	0.58	4
0	3031	0.59	24
0	3083	0.6	12
0	3135	0.61	26
0	3187	0.62	16
0	3239	0.63	53
0	3293	0.64	12
0	3345	0.65	13
0	3397	0.66	14
0	3449	0.67	15
0	3501	0.68	18
0	3553	0.69	15
0	3605	0.7	50
0	3659	0.71	0
0	3711	0.72	1
0	3763	0.73	2
0	3815	0.74	3
0	3867	0.75	4
0	3919	0.76	25
0	3971	0.77	52
0	4025	0.78	8
0	4077	0.79	9
0	4129	0.8	10
0	4181	0.81	11
0	4233	0.82	23
0	4285	0.83	7
0	4337	0.84	59
0	4391	0.85	36
0	4443	0.86	37
0	4495	0.87	38
0	4547	0.88	39
0	4599	0.89	22
0	4651	0.9	9
0	4703	0.91	53
0	4758	0.92	12
0	4810	0.93	13
0	4862	0.94	14
0	4914	0.95	15
0	4966	0.96	39
0	5018	0.97	23
0	5070	0.98	54
0	5124	0.99	16
0	5176	1	17
0	5228	1.01	18
0	5280	1.02	19
0	5332	1.03	27
0	5384	1.04	37
0	5436	1.05	59
0	5490	1.06	36
0	5542	1.07	37
0	5594	1.08	38
0	5646	1.09	39
0	5698	1.1	19
0	5750	1.11	38
0	5802	1.12	58
0	5855	1.13	32
0	5907	1.14	34
0	5959	1.15	10
0	6011	1.16	23
0	6063	1.17	15
0	6115	1.18	23
0	6167	1.19	59
0	6220	1.2	7
0	6272	1.21	28
0	6324	1.22	10
0	6376	1.23	32
0	6428	1.24	24
0	6480	1.25	23
0	6532	1.26	57
0	6586	1.27	28
0	6638	1.28	29
0	6690	1.29	30
0	6742	1.3	31
0	6794	1.31	1
0	6846	1.32	13
0	6898	1.33	53
0	6953	1.34	12
0	7005	1.35	13
0	7057	1.36	14
0	7109	1.37	15
0	7161	1.38	0
0	7213	1.39	13
0	7265	1.4	56
0	7321	1.41	24
0	7373	1.42	25
0	7425	1.43	26
0	7477	1.44	27
0	7529	1.45	21
0	7581	1.46	6
0	7633	1.47	52
0	7688	1.48	8
0	7740	1.49	9
0	7792	1.5	10
0	7844	1.51	11
0	7896	1.52	12
0	7948	1.53	27
0	8000	1.54	55
0	8054	1.55	20
0	8106	1.56	21
0	8158	1.57	22
0	8210	1.58	23
0	8262	1.59	11
0	8314	1.6	7
0	8366	1.61	58
0	8419	1.62	11
0	8471	1.63	12
0	8523	1.64	20
0	8575	1.65	30
0	8627	1.66	36
0	8679	1.67	39
0	8731	1.68	57
0	8784	1.69	4
0	8836	1.7	18
0	8888	1.71	32
0	8940	1.72	13
0	8992	1.73	10
0	9044	1.74	23
0	9096	1.75	51
0	9151	1.76	4
0	9203	1.77	5
0	9255	1.78	6
0	9307	1.79	7
0	9359	1.8	7
0	9411	1.81	24
0	9463	1.82	54
0	9517	1.83	16
0	9569	1.84	17
0	9621	1.85	18
0	9673	1.86	19
0	9725	1.87	32
0	9777	1.88	12
0	9829	1.89	51
0	9883	1.9	4
0	9935	1.91	5
0	9987	1.92	6
0	10039	1.93	7
0	10091	1.94	30
0	10143	1.95	24
0	10195	1.96	52
0	10247	1.97	33
0	10299	1.98	2
0	10351	1.99	28
0	10403	2	39
0	10455	2.01	34
0	10507	2.02	10
0	10559	2.03	56
0	10611	2.04	32
0	10663	2.05	18
0	10715	2.06	22
0	10767	2.07	6
0	10819	2.08	2
0	10871	2.09	7
0	10923	2.1	57
0	10976	2.11	15
0	11028	2.12	5
0	11080	2.13	17
0	11132	2.14	20
0	11184	2.15	22
0	11236	2.16	37
0	11288	2.17	51
0	11343	2.18	4
0	11395	2.19	5
0	11447	2.2	6
0	11499	2.21	7
0	11551	2.22	33
0	11603	2.23	20
0	11655	2.24	50
0	11709	2.25	0
0	11761	2.26	1
0	11813	2.27	2
0	11865	2.28	3
0	11917	2.29	25
0	11969	2.3	21
0	12021	2.31	57
0	12075	2.32	28
0	12127	2.33	29
0	12179	2.34	30
0	12231	2.35	31
0	12283	2.36	32
0	12335	2.37	19
0	12387	2.38	59
0	12442	2.39	36
0	12494	2.4	37
0	12546	2.41	38
0	12598	2.42	39
0	12650	2.43	14
0	12702	2.44	13
0	12754	2.45	54
0	12808	2.46	16
0	12860	2.47	17
0	12912	2.48	18
0	12964	2.49	19
0	13016	2.5	6
0	13068	2.51	13
0	13120	2.52	58
0	13172	2.53	15
0	13224	2.54	24
0	13276	2.55	9
0	13328	2.56	2
0	13380	2.57	7
0	13432	2.58	5
0	13484	2.59	54
0	13537	2.6	37
0	13589	2.61	21
0	13641	2.62	13
0	13693	2.63	27
0	13745	2.64	13
0	13797	2.65	14
0	13849	2.66	57
0	13902	2.67	16
0	13954	2.68	28
0	14006	2.69	3
0	14058	2.7	2
0	14110	2.71	14
0	14162	2.72	0
0	14214	2.73	53
0	14269	2.74	12
0	14321	2.75	13
0	14373	2.76	14
0	14425	2.77	15
0	14477	2.78	29
0	14529	2.79	33
0	14581	2.8	52
0	14635	2.81	8
0	14687	2.82	9
0	14739	2.83	10
0	14791	2.84	11
0	14843	2.85	20
0	14895	2.86	19
0	14947	2.87	50
0	15001	2.88	0
0	15053	2.89	1
0	15105	2.9	2
0	15157	2.91	3
0	15209	2.92	32
0	15261	2.93	28
0	15313	2.94	57
0	15367	2.95	28
0	15419	2.96	29
0	15471	2.97	30
0	15523	2.98	31
0	15575	2.99	18
0	15628	3	48
0	15680	3.01	53
0	15734	3.02	12
0	15786	3.03	13
0	15838	3.04	14
0	15890	3.05	15
0	15942	3.06	32
0	15994	3.07	8
0	16046	3.08	54
0	16101	3.09	16
0	16153	3.1	17
0	16205	3.11	18
0	16257	3.12	19
0	16309	3.13	13
0	16361	3.14	15
0	16413	3.15	59
0	16465	3.16	0
0	16517	3.17	19
0	16569	3.18	24
0	16621	3.19	20
0	16673	3.2	15
0	16725	3.21	30
0	16777	3.22	53
0	16832	3.23	12
0	16884	3.24	13
0	16936	3.25	14
0	16988	3.26	15
0	17040	3.27	19
0	17092	3.28	26
0	17144	3.29	56
0	17196	3.3	7
0	17248	3.31	35
0	17300	3.32	34
0	17352	3.33	36
0	17404	3.34	36
0	17456	3.35	32
0	17508	3.36	53
0	17562	3.37	12
0	17614	3.38	13
0	17666	3.39	14
0	17718	3.4	15
0	17770	3.41	3
0	17822	3.42	24
0	17874	3.43	53
0	17927	3.44	37
0	17979	3.45	30
0	18031	3.46	38
0	18083	3.47	39
0	18135	3.48	5
0	18187	3.49	15
0	18239	3.5	51
0	18294	3.51	4
0	18346	3.52	5
0	18398	3.53	6
0	18450	3.54	7
0	18502	3.55	23
0	18554	3.56	32
0	18606	3.57	52
0	18660	3.58	8
0	18712	3.59	9
0	18764	3.6	10
0	18816	3.61	11
0	18868	3.62	24
0	18920	3.63	34
0	18972	3.64	51
0	19026	3.65	4
0	19078	3.66	5
0	19130	3.67	6
0	19182	3.68	7
0	19234	3.69	4
0	19286	3.7	0
0	19338	3.71	54
0	19391	3.72	14
0	19443	3.73	17
0	19495	3.74	39
0	19547	3.75	35
0	19599	3.76	17
0	19651	3.77	28
0	19703	3.78	56
0	19755	3.79	38
0	19807	3.8	10
0	19859	3.81	13
0	19911	3.82	6
0	19963	3.83	25
0	20015	3.84	38
0	20067	3.85	50
0	20119	3.86	0
0	20171	3.87	22
0	20223	3.88	16
0	20275	3.89	19
0	20327	3.9	9
0	20379	3.91	28
0	20431	3.92	53
0	20485	3.93	12
0	20537	3.94	13
0	20589	3.95	14
0	20641	3.96	15
0	20693	3.97	10
0	20745	3.98	4
0	20797	3.99	57
0	20851	4	28
0	20903	4.01	29
0	20955	4.02	30
0	21007	4.03	31
0	21059	4.04	14
0	21111	4.05	21
0	21163	4.06	53
0	21217	4.07	12
0	21269	4.08	13
0	21321	4.09	14
0	21373	4.1	15
0	21425	4.11	24
0	21477	4.12	16
0	21529	4.13	56
0	21583	4.14	24
0	21635	4.15	25
0	21687	4.16	26
0	21739	4.17	27
0	21791	4.18	15
0	21843	4.19	7
0	21895	4.2	59
0	21949	4.21	36
0	22001	4.22	37
0	22053	4.23	38
0	22105	4.24	39
0	22157	4.25	20
0	22209	4.26	21
0	22261	4.27	52
0	22316	4.28	8
0	22368	4.29	9
0	22420	4.3	10
0	22472	4.31	11
0	22524	4.32	29
0	22576	4.33	37
0	22628	4.34	56
0	22683	4.35	24
0	22735	4.36	25
0	22787	4.37	26
0	22839	4.38	27
0	22891	4.39	27
0	22943	4.4	12
0	22995	4.41	58
0	23050	4.42	32
0	23102	4.43	33
0	23154	4.44	34
0	23206	4.45	35
0	23258	4.46	26
0	23310	4.47	12
0	23362	4.48	57
0	23416	4.49	28
0	23468	4.5	29
0	23520	4.51	30
0	23572	4.52	31
0	23624	4.53	23
0	23676	4.54	39
0	23728	4.55	52
0	23782	4.56	8
0	23834	4.57	9
0	23886	4.58	10
0	23938	4.59	11
0	23990	4.6	38
0	24042	4.61	27
0	24094	4.62	50
0	24147	4.63	5
0	24199	4.64	34
0	24251	4.65	33
0	24303	4.66	26
0	24355	4.67	5
0	24407	4.68	9
0	24459	4.69	54
0	24512	4.7	25
0	24564	4.71	27
0	24616	4.72	1
0	24668	4.73	18
0	24720	4.74	30
0	24772	4.75	32
0	24824	4.76	54
0	24878	4.77	16
0	24930	4.78	17
0	24982	4.79	18
0	25034	4.8	19
0	25086	4.81	30
0	25138	4.82	39
0	25190	4.83	50
0	25245	4.84	0
0	25297	4.85	1
0	25349	4.86	2
0	25401	4.87	3
0	25453	4.88	22
0	25505	4.89	34
0	25557	4.9	54
0	25611	4.91	16
0	25663	4.92	17
0	25715	4.93	18
0	25767	4.94	19
0	25819	4.95	3
0	25871	4.96	6
0	25923	4.97	57
0	25978	4.98	28
0	26030	4.99	29
0	26082	5	30
0	26134	5.01	31
0	26186	5.02	38
0	26238	5.03	19
0	26290	5.04	50
0	26344	5.05	0
0	26396	5.06	1
0	26448	5.07	2
0	26500	5.08	3
0	26552	5.09	6
0	26604	5.1	13
0	26656	5.11	54
0	26710	5.12	16
0	26762	5.13	17
0	26814	5.14	18
0	26866	5.15	19
0	26918	5.16	23
0	26970	5.17	22
0	27022	5.18	52
0	27076	5.19	8
0	27128	5.2	9
0	27180	5.21	10
0	27232	5.22	11
0	27284	5.23	28
0	27336	5.24	31
0	27388	5.25	55
0	27441	5.26	9
0	27493	5.27	24
0	27545	5.28	29
0	27597	5.29	12
0	27649	5.3	18
0	27701	5.31	11
0	27753	5.32	59
0	27806	5.33	36
0	27858	5.34	16
0	27910	5.35	30
0	27962	5.36	20
0	28014	5.37	35
0	28066	5.38	17
0	28118	5.39	52
0	28173	5.4	8
0	28225	5.41	9
0	28277	5.42	10
0	28329	5.43	11
0	28381	5.44	21
0	28433	5.45	29
0	28485	5.46	54
0	28540	5.47	16
0	28592	5.48	17
0	28644	5.49	18
0	28696	5.5	19
0	28748	5.51	16
0	28800	5.52	27
0	28852	5.53	58
0	28906	5.54	32
0	28958	5.55	33
0	29010	5.56	34
0	29062	5.57	35
0	29114	5.58	28
0	29166	5.59	2
0	29218	5.6	53
0	29272	5.61	12
0	29324	5.62	13
0	29376	5.63	14
0	29428	5.64	15
0	29480	5.65	13
0	29532	5.66	36
0	29584	5.67	54
0	29637	5.68	18
0	29689	5.69	33
0	29741	5.7	38
0	29793	5.71	25
0	29845	5.72	39
0	29897	5.73	37
0	29949	5.74	52
0	30003	5.75	8
0	30055	5.76	9
0	30107	5.77	10
0	30159	5.78	11
0	30211	5.79	34
0	30263	5.8	28
0	30315	5.81	58
0	30368	5.82	21
0	30420	5.83	16
0	30472	5.84	28
0	30524	5.85	37
0	30576	5.86	11
0	30628	5.87	22
0	30680	5.88	56
0	30733	5.89	32
0	30785	5.9	14
0	30837	5.91	36
0	30889	5.92	23
0	30941	5.93	11
0	30993	5.94	35
0	31045	5.95	50
0	31100	5.96	0
0	31152	5.97	1
0	31204	5.98	2
0	31256	5.99	3
0	31309	6	41
0	31361	6.01	38
0	31413	6.02	50
0	31466	6.03	46
0	31518	6.04	33
0	31570	6.05	6
0	31622	6.06	44
0	31674	6.07	18
0	31726	6.08	27
0	31778	6.09	55
0	31831	6.1	38
0	31883	6.11	30
0	31935	6.12	7
0	31987	6.13	21
0	32039	6.14	16
0	32091	6.15	39
0	32143	6.16	58
0	32197	6.17	32
0	32249	6.18	33
0	32301	6.19	34
0	32353	6.2	35
0	32405	6.21	30
0	32457	6.22	8
0	32509	6.23	58
0	32563	6.24	32
0	32615	6.25	33
0	32667	6.26	34
0	32719	6.27	35
0	32771	6.28	30
0	32823	6.29	23
0	32875	6.3	52
0	32929	6.31	8
0	32981	6.32	9
0	33033	6.33	10
0	33085	6.34	11
0	33137	6.35	28
0	33189	6.36	0
0	33241	6.37	57
0	33293	6.38	12
0	33345	6.39	17
0	33397	6.4	33
0	33449	6.41	10
0	33501	6.42	28
0	33553	6.43	11
0	33605	6.44	55
0	33659	6.45	20
0	33711	6.46	21
0	33763	6.47	22
0	33815	6.48	23
0	33867	6.49	17
0	33919	6.5	5
0	33971	6.51	59
0	34026	6.52	36
0	34078	6.53	37
0	34130	6.54	38
0	34182	6.55	39
0	34234	6.56	22
0	34286	6.57	14
0	34338	6.58	57
0	34391	6.59	17
0	34443	6.6	10
0	34495	6.61	8
0	34547	6.62	19
0	34599	6.63	12
0	34651	6.64	25
0	34703	6.65	50
0	34756	6.66	4
0	34808	6.67	24
0	34860	6.68	27
0	34912	6.69	4
0	34964	6.7	3
0	35016	6.71	12
0	35068	6.72	52
0	35122	6.73	8
0	35174	6.74	9
0	35226	6.75	10
0	35278	6.76	11
0	35330	6.77	12
0	35382	6.78	32
0	35434	6.79	50
0	35487	6.8	15
0	35539	6.81	36
0	35591	6.82	10
0	35643	6.83	12
0	35695	6.84	18
0	35747	6.85	30
0	35799	6.86	55
0	35854	6.87	20
0	35906	6.88	21
0	35958	6.89	22
0	36010	6.9	23
0	36062	6.91	16
0	36114	6.92	31
0	36166	6.93	50
0	36221	6.94	0
0	36273	6.95	1
0	36325	6.96	2
0	36377	6.97	3
0	36429	6.98	31
0	36481	6.99	35
0	36533	7	58
0	36588	7.01	32
0	36640	7.02	33
0	36692	7.03	34
0	36744	7.04	35
0	36796	7.05	15
0	36848	7.06	21
0	36900	7.07	53
0	36955	7.08	12
0	37007	7.09	13
0	37059	7.1	14
0	37111	7.11	15
0	37163	7.12	13
0	37215	7.13	33
0	37267	7.14	54
0	37322	7.15	16
0	37374	7.16	17
0	37426	7.17	18
0	37478	7.18	19
0	37530	7.19	39
0	37582	7.2	3
0	37634	7.21	52
0	37690	7.22	8
0	37742	7.23	9
0	37794	7.24	10
0	37846	7.25	11
0	37898	7.26	34
0	37950	7.27	14
0	38002	7.28	52
0	38055	7.29	38
0	38107	7.3	38
0	38159	7.31	17
0	38211	7.32	5
0	38263	7.33	38
0	38315	7.34	27
0	38367	7.35	55
0	38421	7.36	20
0	38473	7.37	21
0	38525	7.38	22
0	38577	7.39	23
0	38629	7.4	8
0	38681	7.41	5
0	38733	7.42	55
0	38788	7.43	20
0	38840	7.44	21
0	38892	7.45	22
0	38944	7.46	23
0	38996	7.47	7
0	39048	7.48	14
0	39100	7.49	55
0	39153	7.5	14
0	39205	7.51	33
0	39257	7.52	27
0	39309	7.53	13
0	39361	7.54	30
0	39413	7.55	9
0	39465	7.56	53
0	39520	7.57	12
0	39572	7.58	13
0	39624	7.59	14
0	39676	7.6	15
0	39728	7.61	3
0	39780	7.62	3
0	39832	7.63	56
0	39885	7.64	33
0	39937	7.65	35
0	39989	7.66	16
0	40041	7.67	28
0	40093	7.68	37
0	40145	7.69	0
0	40197	7.7	55
0	40251	7.71	20
0	40303	7.72	21
0	40355	7.73	22
0	40407	7.74	23
0	40459	7.75	29
0	40511	7.76	18
0	40563	7.77	57
0	40618	7.78	28
0	40670	7.79	29
0	40722	7.8	30
0	40774	7.81	31
0	40826	7.82	6
0	40878	7.83	28
0	40930	7.84	54
0	40984	7.85	16
0	41036	7.86	17
0	41088	7.87	18
0	41140	7.88	19
0	41192	7.89	10
0	41244	7.9	32
0	41296	7.91	52
0	41349	7.92	36
0	41401	7.93	29
0	41453	7.94	39
0	41505	7.95	28
0	41557	7.96	29
0	41609	7.97	39
0	41661	7.98	51
0	41716	7.99	4
0	41768	8	5
0	41820	8.01	6
0	41872	8.02	7
0	41924	8.03	7
0	41976	8.04	27
0	42028	8.05	57
0	42083	8.06	28
0	42135	8.07	29
0	42187	8.08	30
0	42239	8.09	31
0	42291	8.1	19
0	42343	8.11	32
0	42395	8.12	56
0	42448	8.13	32
0	42500	8.14	30
0	42552	8.15	22
0	42604	8.16	5
0	42656	8.17	27
0	42708	8.18	31
0	42760	8.19	59
0	42812	8.2	22
0	42864	8.21	12
0	42916	8.22	22
0	42968	8.23	38
0	43020	8.24	18
0	43072	8.25	29
0	43124	8.26	52
0	43178	8.27	8
0	43230	8.28	9
0	43282	8.29	10
0	43334	8.3	11
0	43386	8.31	31
0	43438	8.32	34
0	43490	8.33	53
0	43543	8.34	29
0	43595	8.35	22
0	43647	8.36	15
0	43699	8.37	7
0	43751	8.38	28
0	43803	8.39	19
0	43855	8.4	53
0	43909	8.41	12
0	43961	8.42	13
0	44013	8.43	14
0	44065	8.44	15
0	44117	8.45	15
0	44169	8.46	6
0	44221	8.47	58
0	44275	8.48	32
0	44327	8.49	33
0	44379	8.5	34
0	44431	8.51	35
0	44483	8.52	22
0	44535	8.53	11
0	44587	8.54	55
0	44643	8.55	20
0	44695	8.56	21
0	44747	8.57	22
0	44799	8.58	23
0	44851	8.59	1
0	44903	8.6	29
0	44955	8.61	53
0	45010	8.62	12
0	45062	8.63	13
0	45114	8.64	14
0	45166	8.65	15
0	45218	8.66	34
0	45270	8.67	22
0	45322	8.68	53
0	45377	8.69	12
0	45429	8.7	13
0	45481	8.71	14
0	45533	8.72	15
0	45585	8.73	22
0	45637	8.74	39
0	45689	8.75	52
0	45741	8.76	16
0	45793	8.77	17
0	45845	8.78	24
0	45897	8.79	38
0	45949	8.8	0
0	46001	8.81	33
0	46053	8.82	52
0	46106	8.83	7
0	46158	8.84	14
0	46210	8.85	36
0	46262	8.86	26
0	46314	8.87	32
0	46366	8.88	1
0	46418	8.89	50
0	46472	8.9	0
0	46524	8.91	1
0	46576	8.92	2
0	46628	8.93	3
0	46680	8.94	24
0	46732	8.95	22
0	46784	8.96	52
0	46837	8.97	30
0	46889	8.98	21
0	46941	8.99	4
0	46994	9	43
0	47046	9.01	18
0	47098	9.02	33
0	47150	9.03	59
0	47204	9.04	36
0	47256	9.05	37
0	47308	9.06	44
0	47360	9.07	38
0	47412	9.08	39
0	47464	9.09	12
0	47516	9.1	54
0	47569	9.11	0
0	47621	9.12	25
0	47673	9.13	7
0	47725	9.14	7
0	47777	9.15	33
0	47829	9.16	7
0	47881	9.17	52
0	47934	9.18	4
0	47986	9.19	5
0	48038	9.2	39
0	48090	9.21	12
0	48142	9.22	32
0	48194	9.23	21
0	48246	9.24	52
0	48300	9.25	8
0	48352	9.26	9
0	48404	9.27	10
0	48456	9.28	11
0	48508	9.29	28
0	48560	9.3	7
0	48612	9.31	59
0	48666	9.32	36
0	48718	9.33	37
0	48770	9.34	38
0	48822	9.35	39
0	48874	9.36	33
0	48926	9.37	1
0	48978	9.38	54
0	49031	9.39	38
0	49083	9.4	21
0	49135	9.41	27
0	49187	9.42	38
0	49239	9.43	20
0	49291	9.44	33
0	49343	9.45	51
0	49395	9.46	31
0	49447	9.47	38
0	49499	9.48	28
0	49551	9.49	11
0	49603	9.5	35
0	49655	9.51	31
0	49707	9.52	53
0	49761	9.53	12
0	49813	9.54	13
0	49865	9.55	14
0	49917	9.56	15
0	49969	9.57	2
0	50021	9.58	3
0	50073	9.59	50
0	50127	9.6	0
0	50179	9.61	1
0	50231	9.62	2
0	50283	9.63	3
0	50335	9.64	10
0	50387	9.65	32
0	50439	9.66	51
0	50493	9.67	4
0	50545	9.68	5
0	50597	9.69	6
0	50649	9.7	7
0	50701	9.71	5
0	50753	9.72	0
0	50805	9.73	55
0	50859	9.74	20
0	50911	9.75	21
0	50963	9.76	22
0	51015	9.77	23
0	51067	9.78	8
0	51119	9.79	24
0	51171	9.8	50
0	51225	9.81	0
0	51277	9.82	1
0	51329	9.83	2
0	51381	9.84	3
0	51433	9.85	32
0	51485	9.86	32
0	51537	9.87	59
0	51591	9.88	36
0	51643	9.89	37
0	51695	9.9	38
0	51747	9.91	39
0	51799	9.92	24
0	51851	9.93	21
0	51903	9.94	59
0	51958	9.95	36
0	52010	9.96	37
0	52062	9.97	38
0	52114	9.98	39
0	52166	9.99	27
0	52218	10	35
0	52270	10.01	54
0	52324	10.02	16
0	52376	10.03	17
0	52428	10.04	18
0	52480	10.05	19
0	52532	10.06	32
0	52584	10.07	24
0	52636	10.08	56
0	52689	10.09	25
0	52741	10.1	32
0	52793	10.11	33
0	52845	10.12	6
0	52897	10.13	1
0	52949	10.14	31
0	53001	10.15	57
0	53055	10.16	28
0	53107	10.17	29
0	53159	10.18	30
0	53211	10.19	31
0	53263	10.2	13
0	53315	10.21	3
0	53367	10.22	52
0	53422	10.23	8
0	53474	10.24	9
0	53526	10.25	10
0	53578	10.26	11
0	53630	10.27	19
0	53682	10.28	32
0	53734	10.29	52
0	53787	10.3	34
0	53839	10.31	30
0	53891	10.32	32
0	53943	10.33	19
0	53995	10.34	20
0	54047	10.35	4
0	54099	10.36	59
0	54154	10.37	36
0	54206	10.38	37
0	54258	10.39	38
0	54310	10.4	39
0	54362	10.41	0
0	54414	10.42	26
0	54466	10.43	55
0	54522	10.44	20
0	54574	10.45	21
0	54626	10.46	22
0	54678	10.47	23
0	54730	10.48	10
0	54782	10.49	21
0	54834	10.5	56
0	54888	10.51	24
0	54940	10.52	25
0	54992	10.53	26
0	55044	10.54	27
0	55096	10.55	33
0	55148	10.56	38
0	55200	10.57	55
0	55253	10.58	39
0	55305	10.59	33
0	55357	10.6	31
0	55409	10.61	7
0	55461	10.62	5
0	55513	10.63	6
0	55565	10.64	57
0	55620	10.65	28
0	55672	10.66	29
0	55724	10.67	30
0	55776	10.68	31
0	55828	10.69	22
0	55880	10.7	39
0	55932	10.71	55
0	55985	10.72	38
0	56037	10.73	23
0	56089	10.74	28
0	56141	10.75	36
0	56193	10.76	2
0	56245	10.77	10
0	56297	10.78	54
0	56351	10.79	16
0	56403	10.8	17
0	56455	10.81	18
0	56507	10.82	19
0	56559	10.83	0
0	56611	10.84	16
0	56663	10.85	53
0	56716	10.86	14
0	56768	10.87	5
0	56820	10.88	10
0	56872	10.89	27
0	56924	10.9	33
0	56976	10.91	8
0	57028	10.92	54
0	57080	10.93	39
0	57132	10.94	32
0	57184	10.95	33
0	57236	10.96	7
0	57288	10.97	33
0	57340	10.98	14
0	57392	10.99	55
0	57447	11	20
0	57499	11.01	21
0	57551	11.02	22
0	57603	11.03	23
0	57655	11.04	36
0	57707	11.05	12
0	57759	11.06	55
0	57813	11.07	20
0	57865	11.08	21
0	57917	11.09	22
0	57969	11.1	23
0	58021	11.11	26
0	58073	11.12	18
0	58125	11.13	55
0	58178	11.14	35
0	58230	11.15	12
0	58282	11.16	35
0	58334	11.17	25
0	58386	11.18	37
0	58438	11.19	1
0	58490	11.2	59
0	58543	11.21	0
0	58595	11.22	15
0	58647	11.23	28
0	58699	11.24	6
0	58751	11.25	32
0	58803	11.26	26
0	58855	11.27	54
0	58907	11.28	38
0	58959	11.29	1
0	59011	11.3	16
0	59063	11.31	25
0	59115	11.32	19
0	59167	11.33	30
0	59219	11.34	50
0	59271	11.35	21
0	59323	11.36	33
0	59375	11.37	1
0	59427	11.38	25
0	59479	11.39	38
0	59531	11.4	12
0	59583	11.41	50
0	59637	11.42	0
0	59689	11.43	1
0	59741	11.44	2
0	59793	11.45	3
0	59845	11.46	18
0	59897	11.47	13
0	59949	11.48	58
0	60002	11.49	26
0	60054	11.5	19
0	60106	11.51	39
0	60158	11.52	34
0	60210	11.53	15
0	60262	11.54	37
0	60314	11.55	56
0	60367	11.56	32
0	60419	11.57	36
0	60471	11.58	34
0	60523	11.59	1
0	60575	11.6	32
0	60627	11.61	30
0	60679	11.62	55
0	60731	11.63	7
0	60783	11.64	32
0	60835	11.65	5
0	60887	11.66	1
0	60939	11.67	33
0	60991	11.68	30
0	61043	11.69	52
0	61097	11.7	8
0	61149	11.71	9
0	61201	11.72	10
0	61253	11.73	11
0	61305	11.74	17
0	61357	11.75	18
0	61409	11.76	57
0	61464	11.77	28
0	61516	11.78	29
0	61568	11.79	30
0	61620	11.8	31
0	61672	11.81	21
0	61724	11.82	18
0	61776	11.83	59
0	61832	11.84	36
0	61884	11.85	37
0	61936	11.86	38
0	61988	11.87	39
0	62040	11.88	4
0	62092	11.89	13
0	62144	11.9	57
0	62198	11.91	28
0	62250	11.92	29
0	62302	11.93	30
0	62354	11.94	31
0	62406	11.95	31
0	62458	11.96	37
0	62510	11.97	50
0	62562	11.98	18
0	62614	11.99	31
0	62667	12	41
0	62719	12.01	20
0	62771	12.02	14
0	62823	12.03	49
0	62875	12.04	54
0	62929	12.05	16
0	62981	12.06	17
0	63033	12.07	18
0	63085	12.08	19
0	63137	12.09	25
0	63189	12.1	19
0	63241	12.11	58
0	63296	12.12	32
0	63348	12.13	33
0	63400	12.14	34
0	63452	12.15	35
0	63504	12.16	28
0	63556	12.17	8
0	63608	12.18	57
0	63662	12.19	28
0	63714	12.2	29
0	63766	12.21	30
0	63818	12.22	31
0	63870	12.23	12
0	63922	12.24	11
0	63974	12.25	58
0	64028	12.26	32
0	64080	12.27	33
0	64132	12.28	34
0	64184	12.29	35
0	64236	12.3	10
0	64288	12.31	23
0	64340	12.32	58
0	64394	12.33	32
0	64446	12.34	33
0	64498	12.35	34
0	64550	12.36	35
0	64602	12.37	25
0	64654	12.38	18
0	64706	12.39	52
0	64761	12.4	8
0	64813	12.41	9
0	64865	12.42	10
0	64917	12.43	11
0	64969	12.44	5
0	65021	12.45	21
0	65073	12.46	53
0	65127	12.47	12
0	65179	12.48	13
0	65231	12.49	14
0	65283	12.5	15
0	65335	12.51	9
0	65387	12.52	13
0	65439	12.53	52
0	65493	12.54	8
0	65545	12.55	9
0	65597	12.56	10
0	65649	12.57	11
0	65701	12.58	23
0	65753	12.59	31
0	65805	12.6	54
0	65858	12.61	33
0	65910	12.62	14
0	65962	12.63	8
0	66014	12.64	1
0	66066	12.65	22
0	66118	12.66	2
0	66170	12.67	56
0	66223	12.68	1
0	66275	12.69	8
0	66327	12.7	7
0	66379	12.71	23
0	66431	12.72	13
0	66483	12.73	0
0	66535	12.74	57
0	66588	12.75	3
0	66640	12.76	10
0	66692	12.77	34
0	66744	12.78	33
0	66796	12.79	11
0	66848	12.8	2
0	66900	12.81	55
0	66953	12.82	26
0	67005	12.83	3
0	67057	12.84	31
0	67109	12.85	11
0	67161	12.86	3
0	67213	12.87	1
0	67265	12.88	58
0	67319	12.89	32
0	67371	12.9	33
0	67423	12.91	34
0	67475	12.92	35
0	67527	12.93	17
0	67579	12.94	8
0	67631	12.95	56
0	67686	12.96	24
0	67738	12.97	25
0	67790	12.98	26
0	67842	12.99	27
0	67894	13	4
0	67946	13.01	6
0	67998	13.02	59
0	68052	13.03	36
0	68104	13.04	37
0	68156	13.05	38
0	68208	13.06	39
0	68260	13.07	5
0	68312	13.08	15
0	68364	13.09	54
0	68418	13.1	16
0	68470	13.11	17
0	68522	13.12	18
0	68574	13.13	19
0	68626	13.14	31
0	68678	13.15	26
0	68730	13.16	57
0	68784	13.17	28
0	68836	13.18	29
0	68888	13.19	30
0	68940	13.2	31
0	68992	13.21	2
0	69044	13.22	32
0	69096	13.23	52
0	69149	13.24	0
0	69201	13.25	37
0	69253	13.26	9
0	69305	13.27	26
0	69357	13.28	20
0	69409	13.29	15
0	69461	13.3	51
0	69515	13.31	4
0	69567	13.32	5
0	69619	13.33	6
0	69671	13.34	7
0	69723	13.35	5
0	69775	13.36	2
0	69827	13.37	59
0	69882	13.38	36
0	69934	13.39	37
0	69986	13.4	38
0	70038	13.41	39
0	70090	13.42	28
0	70142	13.43	19
0	70194	13.44	51
0	70249	13.45	4
0	70301	13.46	5
0	70353	13.47	6
0	70405	13.48	7
0	70457	13.49	5
0	70509	13.5	15
0	70561	13.51	51
0	70615	13.52	4
0	70667	13.53	5
0	70719	13.54	6
0	70771	13.55	7
0	70823	13.56	17
0	70875	13.57	7
0	70927	13.58	51
0	70981	13.59	4
0	71033	13.6	5
0	71085	13.61	6
0	71137	13.62	7
0	71189	13.63	22
0	71241	13.64	0
0	71293	13.65	57
0	71348	13.66	28
0	71400	13.67	29
0	71452	13.68	30
0	71504	13.69	31
0	71556	13.7	29
0	71608	13.71	28
0	71660	13.72	54
0	71712	13.73	35
0	71764	13.74	34
0	71816	13.75	5
0	71868	13.76	28
0	71920	13.77	34
0	71972	13.78	34
0	72024	13.79	53
0	72077	13.8	13
0	72129	13.81	37
0	72181	13.82	25
0	72233	13.83	4
0	72285	13.84	11
0	72337	13.85	29
0	72389	13.86	59
0	72443	13.87	36
0	72495	13.88	37
0	72547	13.89	38
0	72599	13.9	39
0	72651	13.91	32
0	72703	13.92	23
0	72755	13.93	53
0	72809	13.94	12
0	72861	13.95	13
0	72913	13.96	14
0	72965	13.97	15
0	73017	13.98	25
0	73069	13.99	24
0	73121	14	50
0	73175	14.01	0
0	73227	14.02	1
0	73279	14.03	2
0	73331	14.04	3
0	73383	14.05	22
0	73435	14.06	24
0	73487	14.07	53
0	73541	14.08	12
0	73593	14.09	13
0	73645	14.1	14
0	73697	14.11	15
0	73749	14.12	22
0	73801	14.13	10
0	73853	14.14	54
0	73906	14.15	9
0	73958	14.16	39
0	74010	14.17	6
0	74062	14.18	30
0	74114	14.19	3
0	74166	14.2	18
0	74218	14.21	59
0	74271	14.22	10
0	74323	14.23	27
0	74375	14.24	1
0	74427	14.25	21
0	74479	14.26	6
0	74531	14.27	9
0	74583	14.28	54
0	74636	14.29	23
0	74688	14.3	8
0	74740	14.31	23
0	74792	14.32	18
0	74844	14.33	21
0	74896	14.34	3
0	74948	14.35	54
0	75002	14.36	16
0	75054	14.37	17
0	75106	14.38	18
0	75158	14.39	19
0	75210	14.4	21
0	75262	14.41	9
0	75314	14.42	52
0	75367	14.43	20
0	75419	14.44	16
0	75471	14.45	13
0	75523	14.46	35
0	75575	14.47	11
0	75627	14.48	28
0	75679	14.49	55
0	75735	14.5	20
0	75787	14.51	21
0	75839	14.52	22
0	75891	14.53	23
0	75943	14.54	34
0	75995	14.55	28
0	76047	14.56	52
0	76101	14.57	8
0	76153	14.58	9
0	76205	14.59	10
0	76257	14.6	11
0	76309	14.61	8
0	76361	14.62	30
0	76413	14.63	50
0	76467	14.64	0
0	76519	14.65	1
0	76571	14.66	2
0	76623	14.67	3
0	76675	14.68	13
0	76727	14.69	18
0	76779	14.7	56
0	76832	14.71	11
0	76884	14.72	19
0	76936	14.73	12
0	76988	14.74	4
0	77040	14.75	25
0	77092	14.76	35
0	77144	14.77	55
0	77200	14.78	20
0	77252	14.79	21
0	77304	14.8	22
0	77356	14.81	23
0	77408	14.82	31
0	77460	14.83	29
0	77512	14.84	52
0	77565	14.85	32
0	77617	14.86	7
0	77669	14.87	29
0	77721	14.88	8
0	77773	14.89	27
0	77825	14.9	33
0	77877	14.91	54
0	77930	14.92	38
0	77982	14.93	33
0	78034	14.94	9
0	78086	14.95	3
0	78138	14.96	14
0	78190	14.97	20
0	78242	14.98	53
0	78297	14.99	12
0	78350	15	47
0	78402	15.01	13
0	78454	15.02	14
0	78506	15.03	43
0	78558	15.04	15
0	78610	15.05	58
0	78665	15.06	32
0	78717	15.07	33
0	78769	15.08	34
0	78821	15.09	35
0	78873	15.1	4
0	78925	15.11	15
0	78977	15.12	54
0	79031	15.13	16
0	79083	15.14	17
0	79135	15.15	18
0	79187	15.16	19
0	79239	15.17	12
0	79291	15.18	38
0	79343	15.19	53
0	79397	15.2	12
0	79449	15.21	13
0	79501	15.22	14
0	79553	15.23	15
0	79605	15.24	16
0	79657	15.25	36
0	79709	15.26	56
0	79764	15.27	24
0	79816	15.28	25
0	79868	15.29	26
0	79920	15.3	27
0	79972	15.31	26
0	80024	15.32	36
0	80076	15.33	59
0	80131	15.34	36
0	80183	15.35	37
0	80235	15.36	38
0	80287	15.37	39
0	80339	15.38	30
0	80391	15.39	35
0	80443	15.4	50
0	80498	15.41	0
0	80550	15.42	1
0	80602	15.43	2
0	80654	15.44	3
0	80706	15.45	38
0	80758	15.46	18
0	80810	15.47	59
0	80862	15.48	31
0	80914	15.49	22
0	80966	15.5	0
0	81018	15.51	6
0	81070	15.52	32
0	81122	15.53	27
0	81174	15.54	50
0	81229	15.55	0
0	81281	15.56	1
0	81333	15.57	2
0	81385	15.58	3
0	81437	15.59	26
0	81489	15.6	20
0	81541	15.61	51
0	81597	15.62	4
0	81649	15.63	5
0	81701	15.64	6
0	81753	15.65	7
0	81805	15.66	37
0	81857	15.67	13
0	81909	15.68	58
0	81962	15.69	18
0	82014	15.7	18
0	82066	15.71	38
0	82118	15.72	38
0	82170	15.73	23
0	82222	15.74	4
0	82274	15.75	55
0	82328	15.76	20
0	82380	15.77	21
0	82432	15.78	22
0	82484	15.79	23
0	82536	15.8	23
0	82588	15.81	2
0	82640	15.82	53
0	82694	15.83	12
0	82746	15.84	13
0	82798	15.85	14
0	82850	15.86	15
0	82902	15.87	36
0	82954	15.88	17
0	83006	15.89	55
0	83061	15.9	20
0	83113	15.91	21
0	83165	15.92	22
0	83217	15.93	23
0	83269	15.94	13
0	83321	15.95	26
0	83373	15.96	51
0	83428	15.97	4
0	83480	15.98	5
0	83532	15.99	6
0	83584	16	7
0	83636	16.01	32
0	83688	16.02	8
0	83740	16.03	58
0	83794	16.04	32
0	83846	16.05	33
0	83898	16.06	34
0	83950	16.07	35
0	84002	16.08	20
0	84054	16.09	4
0	84106	16.1	52
0	84161	16.11	8
0	84213	16.12	9
0	84265	16.13	10
0	84317	16.14	11
0	84369	16.15	21
0	84421	16.16	39
0	84473	16.17	57
0	84529	16.18	28
0	84581	16.19	29
0	84633	16.2	30
0	84685	16.21	31
0	84737	16.22	10
0	84789	16.23	25
0	84841	16.24	57
0	84895	16.25	28
0	84947	16.26	29
0	84999	16.27	30
0	85051	16.28	31
0	85103	16.29	30
0	85155	16.3	26
0	85207	16.31	58
0	85261	16.32	32
0	85313	16.33	33
0	85365	16.34	34
0	85417	16.35	35
0	85469	16.36	24
0	85521	16.37	4
0	85573	16.38	59
0	85626	16.39	13
0	85678	16.4	6
0	85730	16.41	2
0	85782	16.42	3
0	85834	16.43	29
0	85886	16.44	4
0	85938	16.45	53
0	85992	16.46	12
0	86044	16.47	13
0	86096	16.48	14
0	86148	16.49	15
0	86200	16.5	37
0	86252	16.51	18
0	86304	16.52	56
0	86358	16.53	24
0	86410	16.54	25
0	86462	16.55	26
0	86514	16.56	27
0	86566	16.57	13
0	86618	16.58	14
0	86670	16.59	59
0	86725	16.6	36
0	86777	16.61	37
0	86829	16.62	38
0	86881	16.63	39
0	86933	16.64	6
0	86985	16.65	27
0	87037	16.66	50
0	87091	16.67	0
0	87143	16.68	1
0	87195	16.69	2
0	87247	16.7	3
0	87299	16.71	20
0	87351	16.72	23
0	87403	16.73	53
0	87458	16.74	12
0	87510	16.75	13
0	87562	16.76	14
0	87614	16.77	15
0	87666	16.78	7
0	87718	16.79	6
0	87770	16.8	55
0	87824	16.81	20
0	87876	16.82	21
0	87928	16.83	22
0	87980	16.84	23
0	88032	16.85	0
0	88084	16.86	26
0	88136	16.87	59
0	88190	16.88	36
0	88242	16.89	37
0	88294	16.9	38
0	88346	16.91	39
0	88398	16.92	28
0	88450	16.93	3
0	88502	16.94	52
0	88557	16.95	8
0	88609	16.96	9
0	88661	16.97	10
0	88713	16.98	11
0	88765	16.99	21
0	88817	17	33
0	88869	17.01	57
0	88921	17.02	8
0	88973	17.03	39
0	89025	17.04	33
0	89077	17.05	39
0	89129	17.06	35
0	89181	17.07	7
0	89233	17.08	59
0	89288	17.09	36
0	89340	17.1	37
0	89392	17.11	38
0	89444	17.12	39
0	89496	17.13	27
0	89548	17.14	7
0	89600	17.15	54
0	89652	17.16	30
0	89704	17.17	9
0	89756	17.18	24
0	89808	17.19	21
0	89860	17.2	0
0	89912	17.21	19
0	89964	17.22	53
0	90017	17.23	21
0	90069	17.24	27
0	90121	17.25	33
0	90173	17.26	21
0	90225	17.27	30
0	90277	17.28	18
0	90329	17.29	53
0	90385	17.3	12
0	90437	17.31	13
0	90489	17.32	14