version 2
run General-0-20230717-11:48:27-8262
attr configname General
attr datetime 20230717-11:48:27
attr experiment General
attr inifile lin.ini
attr iterationvars ""
attr iterationvarsf ""
attr measurement ""
attr network Lin
attr processid 8262
attr repetition 0
attr replication #0
attr resultdir results
attr runnumber 0
attr seedset 0

vector 0 Lin.LMaster "" ETV
0	2	0.01	37
0	54	0.02	12
0	106	0.03	48
0	158	0.04	9
0	210	0.05	11
0	262	0.06	45
0	314	0.07	50

