version 2
run General-0-20230914-16:15:34-37545
attr configname General
attr datetime 20230914-16:15:34
attr experiment General
attr inifile lin.ini
attr iterationvars ""
attr iterationvarsf ""
attr measurement ""
attr network Lin
attr processid 37545
attr repetition 0
attr replication #0
attr resultdir results
attr runnumber 0
attr seedset 0

vector 0 Lin.LMaster Sporadic ETV
vector 1 Lin.LMaster Unconditional ETV
vector 2 Lin.LMaster "Event Trigger" ETV
vector 3 Lin.LMaster Collision ETV
0	2	0.01	45
0	15727	3.02	42
0	31354	6.01	47
0	47040	9.01	49
0	62731	12.01	45
0	78404	15.01	40
0	94082	18.01	43
0	109767	21.01	47
0	120217	23.01	47
0	135909	26.01	40
0	151588	29.01	46
0	162106	31.02	45
0	172508	33.01	45
0	182970	35.01	47
0	198708	38.02	44
0	209112	40.01	47
0	224796	43.01	46
0	235299	45.02	43
0	245707	47.01	44
0	256166	49.01	44
0	271907	52.02	44
0	287538	55.01	40
0	303221	58.01	42
1	54	0.02	12
1	106	0.03	8
1	158	0.04	9
1	210	0.05	11
1	262	0.06	5
1	367	0.08	16
1	419	0.09	1
1	471	0.1	12
1	523	0.11	7
1	575	0.12	6
1	627	0.13	25
1	941	0.19	20
1	993	0.2	37
1	1098	0.22	20
1	1150	0.23	11
1	1202	0.24	28
1	1254	0.25	29
1	1306	0.26	14
1	1358	0.27	4
1	1672	0.33	23
1	1724	0.34	30
1	2038	0.4	22
1	2090	0.41	13
1	2405	0.47	9
1	2457	0.48	7
1	2561	0.5	1
1	2613	0.51	0
1	2665	0.52	17
1	2717	0.53	8
1	2769	0.54	24
1	2821	0.55	13
1	2926	0.57	8
1	2978	0.58	30
1	3030	0.59	7
1	3082	0.6	3
1	3134	0.61	6
1	3186	0.62	21
1	3500	0.68	3
1	3552	0.69	4
1	3657	0.71	12
1	3709	0.72	26
1	3761	0.73	16
1	3813	0.74	18
1	3865	0.75	15
1	3917	0.76	0
1	4022	0.78	25
1	4074	0.79	34
1	4126	0.8	23
1	4178	0.81	7
1	4230	0.82	26
1	4282	0.83	25
1	4596	0.89	22
1	4648	0.9	9
1	4962	0.96	39
1	5014	0.97	23
1	5328	1.03	27
1	5380	1.04	37
1	5694	1.1	19
1	5746	1.11	38
1	6060	1.17	32
1	6112	1.18	34
1	6426	1.24	15
1	6478	1.25	23
1	6582	1.27	7
1	6634	1.28	28
1	6686	1.29	10
1	6738	1.3	32
1	6790	1.31	24
1	6842	1.32	23
1	6946	1.34	1
1	6998	1.35	13
1	7050	1.36	3
1	7102	1.37	0
1	7154	1.38	13
1	7206	1.39	6
1	7522	1.45	21
1	7574	1.46	6
1	7679	1.48	12
1	7731	1.49	27
1	7783	1.5	21
1	7835	1.51	11
1	7887	1.52	7
1	7939	1.53	13
1	8254	1.59	11
1	8306	1.6	12
1	8411	1.62	30
1	8463	1.63	36
1	8515	1.64	39
1	8567	1.65	7
1	8619	1.66	4
1	8671	1.67	18
1	8985	1.73	13
1	9037	1.74	10
1	9351	1.8	17
1	9403	1.81	7
1	9508	1.83	24
1	9560	1.84	10
1	9612	1.85	28
1	9664	1.86	20
1	9716	1.87	32
1	9768	1.88	12
1	9873	1.9	30
1	9925	1.91	24
1	9977	1.92	18
1	10029	1.93	33
1	10081	1.94	2
1	10133	1.95	28
1	10447	2.01	34
1	10499	2.02	10
1	10814	2.08	32
1	10866	2.09	18
1	10971	2.11	6
1	11023	2.12	2
1	11075	2.13	7
1	11127	2.14	39
1	11179	2.15	15
1	11231	2.16	5
1	11547	2.22	20
1	11599	2.23	22
1	11703	2.25	13
1	11755	2.26	33
1	11807	2.27	20
1	11859	2.28	10
1	11911	2.29	32
1	11963	2.3	25
1	12068	2.32	39
1	12120	2.33	32
1	12172	2.34	19
1	12224	2.35	25
1	12276	2.36	14
1	12328	2.37	13
1	12642	2.43	6
1	12694	2.44	13
1	13008	2.5	15
1	13060	2.51	24
1	13165	2.53	2
1	13217	2.54	7
1	13269	2.55	5
1	13321	2.56	36
1	13373	2.57	37
1	13425	2.58	21
1	13739	2.64	13
1	13791	2.65	27
1	13896	2.67	13
1	13948	2.68	14
1	14000	2.69	23
1	14052	2.7	16
1	14104	2.71	28
1	14156	2.72	3
1	14261	2.74	2
1	14313	2.75	14
1	14365	2.76	0
1	14417	2.77	29
1	14469	2.78	11
1	14521	2.79	35
1	14835	2.85	29
1	14887	2.86	33
1	15201	2.92	20
1	15253	2.93	19
1	15568	2.99	32
1	15620	3	28
1	15987	3.07	31
1	16092	3.09	35
1	16144	3.1	32
1	16196	3.11	8
1	16248	3.12	20
1	16300	3.13	13
1	16352	3.14	15
1	16457	3.16	0
1	16509	3.17	19
1	16561	3.18	24
1	16613	3.19	20
1	16665	3.2	15
1	16717	3.21	30
1	16822	3.23	19
1	16874	3.24	26
1	16926	3.25	22
1	16978	3.26	7
1	17030	3.27	35
1	17082	3.28	34
1	17396	3.34	36
1	17448	3.35	32
1	17553	3.37	3
1	17605	3.38	24
1	17657	3.39	19
1	17709	3.4	37
1	17761	3.41	30
1	17813	3.42	38
1	18127	3.48	5
1	18179	3.49	15
1	18493	3.55	23
1	18545	3.56	32
1	18859	3.62	24
1	18911	3.63	34
1	19016	3.65	4
1	19068	3.66	0
1	19120	3.67	14
1	19172	3.68	17
1	19224	3.69	39
1	19276	3.7	35
1	19591	3.76	28
1	19643	3.77	22
1	19958	3.83	10
1	20010	3.84	13
1	20326	3.9	25
1	20378	3.91	38
1	20693	3.97	0
1	20745	3.98	22
1	21059	4.04	16
1	21111	4.05	19
1	21426	4.11	28
1	21478	4.12	10
1	21583	4.14	23
1	21635	4.15	14
1	21687	4.16	21
1	21739	4.17	3
1	21791	4.18	24
1	21843	4.19	16
1	22157	4.25	15
1	22209	4.26	7
1	22523	4.32	20
1	22575	4.33	21
1	22680	4.35	29
1	22732	4.36	37
1	22784	4.37	22
1	22836	4.38	27
1	22888	4.39	12
1	22940	4.4	12
1	23045	4.42	26
1	23097	4.43	12
1	23149	4.44	7
1	23201	4.45	23
1	23253	4.46	39
1	23305	4.47	12
1	23620	4.53	38
1	23672	4.54	27
1	23776	4.56	5
1	23828	4.57	34
1	23880	4.58	33
1	23932	4.59	26
1	23984	4.6	5
1	24036	4.61	9
1	24141	4.63	25
1	24193	4.64	27
1	24245	4.65	1
1	24297	4.66	18
1	24349	4.67	30
1	24401	4.68	32
1	24506	4.7	30
1	24558	4.71	39
1	24610	4.72	0
1	24662	4.73	22
1	24714	4.74	34
1	24766	4.75	3
1	25082	4.81	12
1	25134	4.82	39
1	25448	4.88	19
1	25500	4.89	6
1	25604	4.91	23
1	25656	4.92	22
1	25708	4.93	2
1	25760	4.94	28
1	25812	4.95	31
1	25864	4.96	9
1	25969	4.98	24
1	26021	4.99	29
1	26073	5	12
1	26125	5.01	18
1	26177	5.02	11
1	26229	5.03	36
1	26544	5.09	16
1	26596	5.1	30
1	26910	5.16	20
1	26962	5.17	35
1	27067	5.19	17
1	27119	5.2	2
1	27171	5.21	21
1	27223	5.22	29
1	27275	5.23	36
1	27327	5.24	16
1	27432	5.26	28
1	27484	5.27	2
1	27536	5.28	35
1	27588	5.29	13
1	27640	5.3	36
1	27692	5.31	36
1	27797	5.33	18
1	27849	5.34	33
1	27901	5.35	38
1	27953	5.36	25
1	28005	5.37	39
1	28057	5.38	37
1	28372	5.44	34
1	28424	5.45	28
1	28738	5.51	21
1	28790	5.52	16
1	29105	5.58	11
1	29157	5.59	22
1	29472	5.65	32
1	29524	5.66	14
1	29838	5.72	23
1	29890	5.73	11
1	30204	5.79	32
1	30256	5.8	27
1	30571	5.86	38
1	30623	5.87	0
1	30728	5.89	33
1	30780	5.9	6
1	30832	5.91	36
1	30884	5.92	18
1	30936	5.93	27
1	30988	5.94	28
1	31093	5.96	38
1	31145	5.97	30
1	31197	5.98	7
1	31249	5.99	21
1	31301	6	16
1	31669	6.07	30
1	31721	6.08	8
1	32037	6.14	30
1	32089	6.15	23
1	32403	6.21	28
1	32455	6.22	0
1	32560	6.24	12
1	32612	6.25	17
1	32664	6.26	33
1	32716	6.27	10
1	32768	6.28	28
1	32820	6.29	11
1	32925	6.31	17
1	32977	6.32	5
1	33029	6.33	22
1	33081	6.34	14
1	33133	6.35	23
1	33185	6.36	17
1	33290	6.38	19
1	33342	6.39	12
1	33394	6.4	25
1	33446	6.41	13
1	33498	6.42	16
1	33550	6.43	4
1	33865	6.49	27
1	33917	6.5	4
1	34232	6.56	12
1	34284	6.57	2
1	34598	6.63	32
1	34650	6.64	15
1	34964	6.7	10
1	35016	6.71	12
1	35120	6.73	30
1	35172	6.74	5
1	35224	6.75	16
1	35276	6.76	31
1	35328	6.77	32
1	35380	6.78	31
1	35694	6.84	24
1	35746	6.85	15
1	36061	6.91	19
1	36113	6.92	13
1	36217	6.94	4
1	36269	6.95	39
1	36321	6.96	3
1	36373	6.97	34
1	36425	6.98	34
1	36477	6.99	14
1	36791	7.05	38
1	36843	7.06	38
1	36948	7.08	17
1	37000	7.09	5
1	37052	7.1	38
1	37104	7.11	27
1	37156	7.12	8
1	37208	7.13	5
1	37524	7.19	7
1	37576	7.2	14
1	37890	7.26	14
1	37942	7.27	33
1	38256	7.33	13
1	38308	7.34	30
1	38622	7.4	3
1	38674	7.41	3
1	38990	7.47	33
1	39042	7.48	35
1	39146	7.5	28
1	39198	7.51	37
1	39250	7.52	0
1	39302	7.53	37
1	39354	7.54	29
1	39406	7.55	18
1	39511	7.57	6
1	39563	7.58	28
1	39615	7.59	10
1	39667	7.6	32
1	39719	7.61	29
1	39771	7.62	18
1	40085	7.68	29
1	40137	7.69	39
1	40453	7.75	29
1	40505	7.76	39
1	40820	7.82	7
1	40872	7.83	27
1	41187	7.89	19
1	41239	7.9	32
1	41344	7.92	32
1	41396	7.93	30
1	41448	7.94	22
1	41500	7.95	5
1	41552	7.96	27
1	41604	7.97	31
1	41709	7.99	22
1	41761	8	12
1	41813	8.01	22
1	41865	8.02	38
1	41917	8.03	18
1	41969	8.04	29
1	42074	8.06	31
1	42126	8.07	34
1	42178	8.08	19
1	42230	8.09	29
1	42282	8.1	22
1	42334	8.11	15
1	42439	8.13	28
1	42491	8.14	19
1	42543	8.15	27
1	42595	8.16	19
1	42647	8.17	15
1	42699	8.18	6
1	43013	8.24	22
1	43065	8.25	11
1	43381	8.31	1
1	43433	8.32	29
1	43747	8.38	34
1	43799	8.39	22
1	44113	8.45	22
1	44165	8.46	39
1	44479	8.52	16
1	44531	8.53	17
1	44845	8.59	38
1	44897	8.6	0
1	45002	8.62	33
1	45054	8.63	18
1	45106	8.64	7
1	45158	8.65	14
1	45210	8.66	36
1	45262	8.67	26
1	45576	8.73	1
1	45628	8.74	24
1	45732	8.76	22
1	45784	8.77	34
1	45836	8.78	30
1	45888	8.79	21
1	45940	8.8	4
1	45992	8.81	3
1	46306	8.87	18
1	46358	8.88	33
1	46672	8.94	12
1	46724	8.95	4
1	47092	9.02	7
1	47406	9.08	33
1	47458	9.09	7
1	47563	9.11	4
1	47615	9.12	5
1	47667	9.13	39
1	47719	9.14	12
1	47771	9.15	32
1	47823	9.16	21
1	47928	9.18	28
1	47980	9.19	7
1	48032	9.2	28
1	48084	9.21	25
1	48136	9.22	33
1	48188	9.23	1
1	48293	9.25	38
1	48345	9.26	21
1	48397	9.27	27
1	48449	9.28	38
1	48501	9.29	20
1	48553	9.3	33
1	48868	9.36	31
1	48920	9.37	38
1	49234	9.43	35
1	49286	9.44	31
1	49391	9.46	2
1	49443	9.47	3
1	49495	9.48	32
1	49547	9.49	10
1	49599	9.5	32
1	49651	9.51	33
1	49755	9.53	0
1	49807	9.54	37
1	49859	9.55	8
1	49911	9.56	24
1	49963	9.57	16
1	50015	9.58	32
1	50120	9.6	24
1	50172	9.61	21
1	50224	9.62	27
1	50276	9.63	35
1	50328	9.64	4
1	50380	9.65	32
1	50695	9.71	24
1	50747	9.72	38
1	51061	9.78	25
1	51113	9.79	32
1	51428	9.85	33
1	51480	9.86	6
1	51794	9.92	31
1	51846	9.93	7
1	52160	9.99	28
1	52212	10	15
1	52527	10.06	19
1	52579	10.07	32
1	52893	10.13	34
1	52945	10.14	30
1	53260	10.2	32
1	53312	10.21	19
1	53626	10.27	20
1	53678	10.28	4
1	53993	10.34	0
1	54045	10.35	26
1	54359	10.41	10
1	54411	10.42	21
1	54725	10.48	33
1	54777	10.49	38
1	54882	10.51	39
1	54934	10.52	33
1	54986	10.53	31
1	55038	10.54	7
1	55090	10.55	5
1	55142	10.56	6
1	55247	10.58	22
1	55299	10.59	39
1	55351	10.6	31
1	55403	10.61	37
1	55455	10.62	38
1	55507	10.63	23
1	55611	10.65	2
1	55663	10.66	10
1	55715	10.67	20
1	55767	10.68	0
1	55819	10.69	16
1	55871	10.7	30
1	56186	10.76	14
1	56238	10.77	5
1	56553	10.83	10
1	56605	10.84	27
1	56919	10.9	8
1	56971	10.91	4
1	57285	10.97	32
1	57337	10.98	33
1	57652	11.04	33
1	57704	11.05	14
1	58020	11.11	36
1	58072	11.12	12
1	58177	11.14	26
1	58229	11.15	18
1	58281	11.16	37
1	58333	11.17	35
1	58385	11.18	12
1	58437	11.19	35
1	58753	11.25	37
1	58805	11.26	1
1	59121	11.32	0
1	59173	11.33	15
1	59487	11.39	6
1	59539	11.4	32
1	59853	11.46	38
1	59905	11.47	1
1	60219	11.53	25
1	60271	11.54	19
1	60376	11.56	21
1	60428	11.57	33
1	60480	11.58	1
1	60532	11.59	25
1	60584	11.6	38
1	60636	11.61	12
1	60950	11.67	18
1	61002	11.68	13
1	61316	11.74	26
1	61368	11.75	19
1	61683	11.81	34
1	61735	11.82	15
1	61840	11.84	38
1	61892	11.85	32
1	61944	11.86	36
1	61996	11.87	34
1	62048	11.88	1
1	62100	11.89	32
1	62416	11.95	7
1	62468	11.96	32
1	62835	12.03	1
1	63149	12.09	30
1	63201	12.1	18
1	63306	12.12	17
1	63358	12.13	18
1	63410	12.14	31
1	63462	12.15	7
1	63514	12.16	21
1	63566	12.17	18
1	63671	12.19	4
1	63723	12.2	13
1	63775	12.21	23
1	63827	12.22	31
1	63879	12.23	37
1	63931	12.24	0
1	64245	12.3	31
1	64297	12.31	1
1	64611	12.37	14
1	64663	12.38	4
1	64977	12.44	25
1	65029	12.45	19
1	65343	12.51	28
1	65395	12.52	8
1	65710	12.58	12
1	65762	12.59	11
1	66076	12.65	10
1	66128	12.66	23
1	66442	12.72	25
1	66494	12.73	18
1	66808	12.79	5
1	66860	12.8	21
1	66965	12.82	9
1	67017	12.83	13
1	67069	12.84	18
1	67121	12.85	23
1	67173	12.86	31
1	67225	12.87	33
1	67539	12.93	14
1	67591	12.94	8
1	67696	12.96	22
1	67748	12.97	2
1	67800	12.98	22
1	67852	12.99	1
1	67904	13	8
1	67956	13.01	7
1	68061	13.03	23
1	68113	13.04	13
1	68165	13.05	0
1	68217	13.06	39
1	68269	13.07	3
1	68321	13.08	10
1	68636	13.14	33
1	68688	13.15	11
1	69003	13.21	10
1	69055	13.22	27
1	69160	13.24	26
1	69212	13.25	3
1	69264	13.26	31
1	69316	13.27	11
1	69368	13.28	3
1	69420	13.29	1
1	69734	13.35	17
1	69786	13.36	8
1	69890	13.38	4
1	69942	13.39	6
1	69994	13.4	12
1	70046	13.41	9
1	70098	13.42	5
1	70150	13.43	15
1	70464	13.49	31
1	70516	13.5	26
1	70621	13.52	2
1	70673	13.53	32
1	70725	13.54	11
1	70777	13.55	18
1	70829	13.56	0
1	70881	13.57	37
1	71196	13.63	26
1	71248	13.64	20
1	71562	13.7	5
1	71614	13.71	2
1	71719	13.73	28
1	71771	13.74	19
1	71823	13.75	17
1	71875	13.76	5
1	71927	13.77	15
1	71979	13.78	10
1	72084	13.8	17
1	72136	13.81	7
1	72188	13.82	17
1	72240	13.83	22
1	72292	13.84	0
1	72344	13.85	7
1	72658	13.91	28
1	72710	13.92	35
1	72815	13.94	5
1	72867	13.95	28
1	72919	13.96	34
1	72971	13.97	34
1	73023	13.98	19
1	73075	13.99	13
1	73389	14.05	25
1	73441	14.06	4
1	73545	14.08	32
1	73597	14.09	23
1	73649	14.1	25
1	73701	14.11	24
1	73753	14.12	31
1	73805	14.13	28
1	74119	14.19	22
1	74171	14.2	24
1	74485	14.26	22
1	74537	14.27	10
1	74641	14.29	9
1	74693	14.3	39
1	74745	14.31	6
1	74797	14.32	30
1	74849	14.33	3
1	74901	14.34	18
1	75006	14.36	10
1	75058	14.37	27
1	75110	14.38	1
1	75162	14.39	21
1	75214	14.4	6
1	75266	14.41	9
1	75580	14.47	23
1	75632	14.48	8
1	75946	14.54	23
1	75998	14.55	18
1	76103	14.57	3
1	76155	14.58	14
1	76207	14.59	20
1	76259	14.6	21
1	76311	14.61	9
1	76363	14.62	2
1	76468	14.64	16
1	76520	14.65	13
1	76572	14.66	35
1	76624	14.67	11
1	76676	14.68	28
1	76728	14.69	21
1	77044	14.75	28
1	77096	14.76	18
1	77410	14.82	30
1	77462	14.83	0
1	77776	14.89	38
1	77828	14.9	11
1	77933	14.92	19
1	77985	14.93	12
1	78037	14.94	4
1	78089	14.95	25
1	78141	14.96	35
1	78193	14.97	5
1	78560	15.04	7
1	78875	15.1	29
1	78927	15.11	8
1	79241	15.17	29
1	79293	15.18	4
1	79398	15.2	33
1	79450	15.21	9
1	79502	15.22	3
1	79554	15.23	14
1	79606	15.24	20
1	79658	15.25	35
1	79972	15.31	28
1	80024	15.32	28
1	80129	15.34	4
1	80181	15.35	15
1	80233	15.36	11
1	80285	15.37	31
1	80337	15.38	36
1	80389	15.39	12
1	80494	15.41	38
1	80546	15.42	19
1	80598	15.43	16
1	80650	15.44	36
1	80702	15.45	10
1	80754	15.46	6
1	81068	15.52	30
1	81120	15.53	35
1	81225	15.55	38
1	81277	15.56	18
1	81329	15.57	31
1	81381	15.58	31
1	81433	15.59	22
1	81485	15.6	0
1	81590	15.62	32
1	81642	15.63	27
1	81694	15.64	0
1	81746	15.65	26
1	81798	15.66	20
1	81850	15.67	26
1	81955	15.69	37
1	82007	15.7	13
1	82059	15.71	18
1	82111	15.72	18
1	82163	15.73	38
1	82215	15.74	38
1	82320	15.76	4
1	82372	15.77	5
1	82424	15.78	23
1	82476	15.79	2
1	82528	15.8	19
1	82580	15.81	36
1	82685	15.83	21
1	82737	15.84	13
1	82789	15.85	26
1	82841	15.86	32
1	82893	15.87	8
1	82945	15.88	8
1	83260	15.94	4
1	83312	15.95	18
1	83626	16.01	21
1	83678	16.02	39
1	83993	16.08	10
1	84045	16.09	25
1	84359	16.15	30
1	84411	16.16	26
1	84516	16.18	24
1	84568	16.19	4
1	84620	16.2	27
1	84672	16.21	13
1	84724	16.22	6
1	84776	16.23	2
1	84881	16.25	29
1	84933	16.26	4
1	84985	16.27	28
1	85037	16.28	35
1	85089	16.29	37
1	85141	16.3	18
1	85455	16.36	13
1	85507	16.37	14
1	85612	16.39	6
1	85664	16.4	27
1	85716	16.41	16
1	85768	16.42	20
1	85820	16.43	23
1	85872	16.44	35
1	86186	16.5	6
1	86238	16.51	21
1	86552	16.57	26
1	86604	16.58	9
1	86919	16.64	28
1	86971	16.65	3
1	87076	16.67	21
1	87128	16.68	33
1	87180	16.69	7
1	87232	16.7	8
1	87284	16.71	39
1	87336	16.72	33
1	87441	16.74	35
1	87493	16.75	7
1	87545	16.76	27
1	87597	16.77	7
1	87649	16.78	36
1	87701	16.79	30
1	88016	16.85	24
1	88068	16.86	21
1	88382	16.92	0
1	88434	16.93	19
1	88748	16.99	21
1	88800	17	27
1	88905	17.02	21
1	88957	17.03	30
1	89009	17.04	18
1	89061	17.05	3
1	89113	17.06	35
1	89165	17.07	31
1	89269	17.09	22
1	89321	17.1	10
1	89373	17.11	8
1	89425	17.12	31
1	89477	17.13	12
1	89529	17.14	18
1	89634	17.16	23
1	89686	17.17	8
1	89738	17.18	23
1	89790	17.19	34
1	89842	17.2	30
1	89894	17.21	3
1	90209	17.27	4
1	90261	17.28	15
1	90577	17.34	30
1	90629	17.35	26
1	90943	17.41	34
1	90995	17.42	23
1	91099	17.44	35
1	91151	17.45	16
1	91203	17.46	23
1	91255	17.47	26
1	91307	17.48	14
1	91359	17.49	23
1	91674	17.55	24
1	91726	17.56	24
1	92040	17.62	9
1	92092	17.63	20
1	92406	17.69	30
1	92458	17.7	12
1	92774	17.76	0
1	92826	17.77	33
1	92931	17.79	13
1	92983	17.8	11
1	93035	17.81	26
1	93087	17.82	24
1	93139	17.83	13
1	93191	17.84	31
1	93505	17.9	15
1	93557	17.91	25
1	93662	17.93	31
1	93714	17.94	33
1	93766	17.95	38
1	93818	17.96	28
1	93870	17.97	20
1	93922	17.98	14
1	94290	18.05	17
1	94605	18.11	6
1	94657	18.12	5
1	94762	18.14	13
1	94814	18.15	24
1	94866	18.16	15
1	94918	18.17	36
1	94970	18.18	16
1	95022	18.19	9
1	95338	18.25	24
1	95390	18.26	18
1	95704	18.32	14
1	95756	18.33	6
1	95861	18.35	27
1	95913	18.36	23
1	95965	18.37	5
1	96017	18.38	4
1	96069	18.39	23
1	96121	18.4	39
1	96436	18.46	13
1	96488	18.47	26
1	96802	18.53	17
1	96854	18.54	23
1	97169	18.6	21
1	97221	18.61	17
1	97326	18.63	33
1	97378	18.64	11
1	97430	18.65	34
1	97482	18.66	2
1	97534	18.67	32
1	97586	18.68	26
1	97900	18.74	26
1	97952	18.75	26
1	98266	18.81	7
1	98318	18.82	35
1	98633	18.88	6
1	98685	18.89	5
1	98999	18.95	28
1	99051	18.96	34
1	99365	19.02	21
1	99417	19.03	10
1	99731	19.09	14
1	99783	19.1	23
1	99887	19.12	20
1	99939	19.13	11
1	99991	19.14	12
1	100043	19.15	26
1	100095	19.16	18
1	100147	19.17	1
1	100461	19.23	28
1	100513	19.24	23
1	100827	19.3	20
1	100879	19.31	33
1	101194	19.37	30
1	101246	19.38	0
1	101351	19.4	16
1	101403	19.41	0
1	101455	19.42	30
1	101507	19.43	18
1	101559	19.44	36
1	101611	19.45	10
1	101715	19.47	14
1	101767	19.48	39
1	101819	19.49	35
1	101871	19.5	33
1	101923	19.51	0
1	101975	19.52	5
1	102080	19.54	20
1	102132	19.55	24
1	102184	19.56	4
1	102236	19.57	18
1	102288	19.58	28
1	102340	19.59	19
1	102656	19.65	7
1	102708	19.66	39
1	103022	19.72	2
1	103074	19.73	26
1	103389	19.79	4
1	103441	19.8	16
1	103756	19.86	30
1	103808	19.87	20
1	104122	19.93	34
1	104174	19.94	36
1	104488	20	32
1	104540	20.01	5
1	104855	20.07	0
1	104907	20.08	9
1	105222	20.14	24
1	105274	20.15	38
1	105379	20.17	32
1	105431	20.18	29
1	105483	20.19	24
1	105535	20.2	10
1	105587	20.21	30
1	105639	20.22	18
1	105744	20.24	6
1	105796	20.25	7
1	105848	20.26	15
1	105900	20.27	12
1	105952	20.28	0
1	106004	20.29	3
1	106320	20.35	15
1	106372	20.36	3
1	106686	20.42	2
1	106738	20.43	15
1	106843	20.45	19
1	106895	20.46	23
1	106947	20.47	21
1	106999	20.48	0
1	107051	20.49	30
1	107103	20.5	20
1	107208	20.52	20
1	107260	20.53	12
1	107312	20.54	22
1	107364	20.55	14
1	107416	20.56	24
1	107468	20.57	32
1	107783	20.63	6
1	107835	20.64	24
1	107940	20.66	35
1	107992	20.67	31
1	108044	20.68	39
1	108096	20.69	14
1	108148	20.7	29
1	108200	20.71	13
1	108514	20.77	15
1	108566	20.78	33
1	108671	20.8	35
1	108723	20.81	25
1	108775	20.82	34
1	108827	20.83	22
1	108879	20.84	33
1	108931	20.85	35
1	109035	20.87	32
1	109087	20.88	3
1	109139	20.89	3
1	109191	20.9	31
1	109243	20.91	32
1	109295	20.92	25
1	109399	20.94	28
1	109451	20.95	35
1	109503	20.96	36
1	109555	20.97	20
1	109607	20.98	0
1	109659	20.99	14
1	110027	21.06	14
1	110342	21.12	18
1	110394	21.13	14
1	110708	21.19	29
1	110760	21.2	15
1	110865	21.22	25
1	110917	21.23	4
1	110969	21.24	5
1	111021	21.25	36
1	111073	21.26	22
1	111125	21.27	29
1	111440	21.33	16
1	111492	21.34	8
1	111597	21.36	38
1	111649	21.37	14
1	111701	21.38	36
1	111753	21.39	0
1	111805	21.4	4
1	111857	21.41	37
1	112172	21.47	9
1	112224	21.48	16
1	112329	21.5	35
1	112381	21.51	38
1	112433	21.52	8
1	112485	21.53	15
1	112537	21.54	39
1	112589	21.55	2
1	112903	21.61	35
1	112955	21.62	33
1	113060	21.64	34
1	113112	21.65	19
1	113164	21.66	29
1	113216	21.67	18
1	113268	21.68	38
1	113320	21.69	10
1	113634	21.75	25
1	113686	21.76	17
1	113791	21.78	37
1	113843	21.79	20
1	113895	21.8	23
1	113947	21.81	18
1	113999	21.82	15
1	114051	21.83	32
1	114366	21.89	30
1	114418	21.9	9
1	114732	21.96	16
1	114784	21.97	15
1	114889	21.99	27
1	114941	22	20
1	114993	22.01	23
1	115045	22.02	6
1	115097	22.03	24
1	115149	22.04	0
1	115254	22.06	16
1	115306	22.07	28
1	115358	22.08	24
1	115410	22.09	1
1	115462	22.1	9
1	115514	22.11	21
1	115828	22.17	12
1	115880	22.18	32
1	116194	22.24	17
1	116246	22.25	19
1	116351	22.27	33
1	116403	22.28	18
1	116455	22.29	22
1	116507	22.3	3
1	116559	22.31	34
1	116611	22.32	24
1	116925	22.38	37
1	116977	22.39	33
1	117082	22.41	15
1	117134	22.42	1
1	117186	22.43	6
1	117238	22.44	15
1	117290	22.45	28
1	117342	22.46	3
1	117446	22.48	21
1	117498	22.49	29
1	117550	22.5	3
1	117602	22.51	2
1	117654	22.52	28
1	117706	22.53	20
1	117811	22.55	31
1	117863	22.56	25
1	117915	22.57	17
1	117967	22.58	22
1	118019	22.59	13
1	118071	22.6	30
1	118385	22.66	36
1	118437	22.67	21
1	118753	22.73	3
1	118805	22.74	23
1	119120	22.8	13
1	119172	22.81	7
1	119277	22.83	30
1	119329	22.84	26
1	119381	22.85	8
1	119433	22.86	39
1	119485	22.87	32
1	119537	22.88	20
1	119642	22.9	9
1	119694	22.91	39
1	119746	22.92	25
1	119798	22.93	1
1	119850	22.94	31
1	119902	22.95	35
1	120269	23.02	18
1	120583	23.08	1
1	120635	23.09	34
1	120950	23.15	17
1	121002	23.16	21
1	121316	23.22	18
1	121368	23.23	11
1	121683	23.29	3
1	121735	23.3	19
1	121840	23.32	29
1	121892	23.33	21
1	121944	23.34	27
1	121996	23.35	32
1	122048	23.36	22
1	122100	23.37	20
1	122414	23.43	17
1	122466	23.44	5
1	122781	23.5	9
1	122833	23.51	10
1	123148	23.57	38
1	123200	23.58	23
1	123514	23.64	31
1	123566	23.65	18
1	123880	23.71	5
1	123932	23.72	28
1	124246	23.78	18
1	124298	23.79	10
1	124612	23.85	25
1	124664	23.86	4
1	124978	23.92	18
1	125030	23.93	22
1	125135	23.95	16
1	125187	23.96	17
1	125239	23.97	30
1	125291	23.98	14
1	125343	23.99	30
1	125395	24	10
1	125709	24.06	4
1	125761	24.07	7
1	126076	24.13	20
1	126128	24.14	34
1	126233	24.16	35
1	126285	24.17	13
1	126337	24.18	11
1	126389	24.19	2
1	126441	24.2	21
1	126493	24.21	17
1	126808	24.27	27
1	126860	24.28	21
1	127174	24.34	35
1	127226	24.35	28
1	127540	24.41	27
1	127592	24.42	10
1	127906	24.48	11
1	127958	24.49	17
1	128273	24.55	22
1	128325	24.56	36
1	128430	24.58	28
1	128482	24.59	20
1	128534	24.6	8
1	128586	24.61	35
1	128638	24.62	8
1	128690	24.63	17
1	129005	24.69	32
1	129057	24.7	34
1	129371	24.76	27
1	129423	24.77	31
1	129528	24.79	16
1	129580	24.8	27
1	129632	24.81	15
1	129684	24.82	26
1	129736	24.83	37
1	129788	24.84	24
1	129893	24.86	38
1	129945	24.87	19
1	129997	24.88	20
1	130049	24.89	21
1	130101	24.9	1
1	130153	24.91	4
1	130258	24.93	18
1	130310	24.94	4
1	130362	24.95	16
1	130414	24.96	14
1	130466	24.97	35
1	130518	24.98	39
1	130832	25.04	3
1	130884	25.05	11
1	131199	25.11	8
1	131251	25.12	34
1	131567	25.18	28
1	131619	25.19	25
1	131724	25.21	1
1	131776	25.22	34
1	131828	25.23	8
1	131880	25.24	25
1	131932	25.25	27
1	131984	25.26	29
1	132300	25.32	13
1	132352	25.33	10
1	132456	25.35	15
1	132508	25.36	10
1	132560	25.37	12
1	132612	25.38	33
1	132664	25.39	0
1	132716	25.4	30
1	133030	25.46	17
1	133082	25.47	0
1	133396	25.53	3
1	133448	25.54	30
1	133763	25.6	26
1	133815	25.61	31
1	133920	25.63	33
1	133972	25.64	36
1	134024	25.65	9
1	134076	25.66	0
1	134128	25.67	39
1	134180	25.68	5
1	134495	25.74	3
1	134547	25.75	39
1	134861	25.81	16
1	134913	25.82	25
1	135227	25.88	0
1	135279	25.89	14
1	135594	25.95	14
1	135646	25.96	33
1	136013	26.03	14
1	136327	26.09	35
1	136379	26.1	31
1	136484	26.12	7
1	136536	26.13	7
1	136588	26.14	16
1	136640	26.15	2
1	136692	26.16	5
1	136744	26.17	38
1	136849	26.19	15
1	136901	26.2	14
1	136953	26.21	13
1	137005	26.22	12
1	137057	26.23	37
1	137109	26.24	11
1	137214	26.26	34
1	137266	26.27	6
1	137318	26.28	5
1	137370	26.29	21
1	137422	26.3	6
1	137474	26.31	8
1	137788	26.37	7
1	137840	26.38	29
1	137944	26.4	9
1	137996	26.41	22
1	138048	26.42	20
1	138100	26.43	33
1	138152	26.44	24
1	138204	26.45	9
1	138519	26.51	36
1	138571	26.52	23
1	138885	26.58	37
1	138937	26.59	6
1	139251	26.65	1
1	139303	26.66	19
1	139408	26.68	8
1	139460	26.69	34
1	139512	26.7	29
1	139564	26.71	0
1	139616	26.72	15
1	139668	26.73	19
1	139983	26.79	7
1	140035	26.8	1
1	140350	26.86	26
1	140402	26.87	25
1	140717	26.93	6
1	140769	26.94	32
1	141084	27	38
1	141136	27.01	17
1	141450	27.07	38
1	141502	27.08	3
1	141817	27.14	27
1	141869	27.15	16
1	142183	27.21	6
1	142235	27.22	8
1	142549	27.28	34
1	142601	27.29	33
1	142706	27.31	6
1	142758	27.32	5
1	142810	27.33	37
1	142862	27.34	30
1	142914	27.35	24
1	142966	27.36	20
1	143280	27.42	0
1	143332	27.43	5
1	143646	27.49	27
1	143698	27.5	39
1	143802	27.52	25
1	143854	27.53	36
1	143906	27.54	0
1	143958	27.55	38
1	144010	27.56	32
1	144062	27.57	5
1	144376	27.63	33
1	144428	27.64	0
1	144533	27.66	12
1	144585	27.67	16
1	144637	27.68	32
1	144689	27.69	33
1	144741	27.7	16
1	144793	27.71	12
1	145108	27.77	10
1	145160	27.78	17
1	145474	27.84	20
1	145526	27.85	29
1	145630	27.87	6
1	145682	27.88	18
1	145734	27.89	0
1	145786	27.9	5
1	145838	27.91	11
1	145890	27.92	24
1	146206	27.98	14
1	146258	27.99	38
1	146572	28.05	33
1	146624	28.06	24
1	146938	28.12	30
1	146990	28.13	39
1	147305	28.19	38
1	147357	28.2	32
1	147671	28.26	33
1	147723	28.27	36
1	147828	28.29	38
1	147880	28.3	34
1	147932	28.31	31
1	147984	28.32	34
1	148036	28.33	7
1	148088	28.34	20
1	148192	28.36	26
1	148244	28.37	22
1	148296	28.38	2
1	148348	28.39	0
1	148400	28.4	28
1	148452	28.41	39
1	148766	28.47	8
1	148818	28.48	9
1	149133	28.54	11
1	149185	28.55	34
1	149290	28.57	27
1	149342	28.58	12
1	149394	28.59	23
1	149446	28.6	2
1	149498	28.61	22
1	149550	28.62	18
1	149864	28.68	34
1	149916	28.69	29
1	150020	28.71	16
1	150072	28.72	1
1	150124	28.73	11
1	150176	28.74	1
1	150228	28.75	28
1	150280	28.76	0
1	150385	28.78	14
1	150437	28.79	12
1	150489	28.8	36
1	150541	28.81	14
1	150593	28.82	9
1	150645	28.83	21
1	150961	28.89	32
1	151013	28.9	7
1	151327	28.96	24
1	151379	28.97	16
1	151483	28.99	16
1	151535	29	4
1	151640	29.02	7
1	151692	29.03	9
1	151744	29.04	34
1	151849	29.06	4
1	151901	29.07	13
1	151953	29.08	2
1	152005	29.09	27
1	152057	29.1	35
1	152109	29.11	0
1	152213	29.13	6
1	152265	29.14	16
1	152317	29.15	37
1	152369	29.16	17
1	152421	29.17	38
1	152473	29.18	18
1	152788	29.24	0
1	152840	29.25	33
1	153154	29.31	13
1	153206	29.32	35
1	153520	29.38	9
1	153572	29.39	12
1	153886	29.45	31
1	153938	29.46	30
1	154252	29.52	38
1	154304	29.53	27
1	154619	29.59	22
1	154671	29.6	39
1	154985	29.66	2
1	155037	29.67	25
1	155352	29.73	32
1	155404	29.74	30
1	155719	29.8	27
1	155771	29.81	14
1	156085	29.87	21
1	156137	29.88	25
1	156452	29.94	10
1	156504	29.95	6
1	156819	30.01	30
1	156871	30.02	13
1	156976	30.04	18
1	157028	30.05	19
1	157080	30.06	25
1	157132	30.07	24
1	157184	30.08	4
1	157236	30.09	11
1	157341	30.11	22
1	157393	30.12	6
1	157445	30.13	4
1	157497	30.14	15
1	157549	30.15	28
1	157601	30.16	30
1	157916	30.22	21
1	157968	30.23	27
1	158283	30.29	35
1	158335	30.3	8
1	158440	30.32	37
1	158492	30.33	30
1	158544	30.34	24
1	158596	30.35	12
1	158648	30.36	21
1	158700	30.37	28
1	159014	30.43	23
1	159066	30.44	28
1	159382	30.5	25
1	159434	30.51	37
1	159749	30.57	23
1	159801	30.58	4
1	160115	30.64	13
1	160167	30.65	29
1	160481	30.71	28
1	160533	30.72	27
1	160637	30.74	28
1	160689	30.75	39
1	160741	30.76	17
1	160793	30.77	5
1	160845	30.78	19
1	160897	30.79	8
1	161211	30.85	28
1	161263	30.86	28
1	161579	30.92	37
1	161631	30.93	30
1	161945	30.99	26
1	161997	31	14
1	162366	31.07	12
1	162471	31.09	15
1	162523	31.1	29
1	162575	31.11	37
1	162627	31.12	15
1	162679	31.13	28
1	162731	31.14	7
1	163046	31.2	11
1	163098	31.21	2
1	163412	31.27	36
1	163464	31.28	37
1	163569	31.3	25
1	163621	31.31	20
1	163673	31.32	0
1	163725	31.33	0
1	163777	31.34	17
1	163829	31.35	35
1	164143	31.41	17
1	164195	31.42	35
1	164510	31.48	36
1	164562	31.49	38
1	164877	31.55	1
1	164929	31.56	0
1	165243	31.62	12
1	165295	31.63	26
1	165609	31.69	25
1	165661	31.7	5
1	165976	31.76	14
1	166028	31.77	23
1	166132	31.79	27
1	166184	31.8	0
1	166236	31.81	35
1	166288	31.82	34
1	166340	31.83	23
1	166392	31.84	24
1	166707	31.9	14
1	166759	31.91	13
1	167074	31.97	22
1	167126	31.98	32
1	167230	32	38
1	167282	32.01	19
1	167334	32.02	20
1	167386	32.03	24
1	167438	32.04	7
1	167490	32.05	27
1	167804	32.11	31
1	167856	32.12	37
1	168170	32.18	16
1	168222	32.19	32
1	168536	32.25	9
1	168588	32.26	5
1	168693	32.28	16
1	168745	32.29	38
1	168797	32.3	30
1	168849	32.31	2
1	168901	32.32	25
1	168953	32.33	32
1	169267	32.39	25
1	169319	32.4	21
1	169633	32.46	2
1	169685	32.47	9
1	169790	32.49	39
1	169842	32.5	29
1	169894	32.51	20
1	169946	32.52	20
1	169998	32.53	9
1	170050	32.54	7
1	170364	32.6	5
1	170416	32.61	25
1	170730	32.67	19
1	170782	32.68	16
1	170887	32.7	17
1	170939	32.71	4
1	170991	32.72	3
1	171043	32.73	19
1	171095	32.74	5
1	171147	32.75	38
1	171252	32.77	12
1	171304	32.78	34
1	171356	32.79	24
1	171408	32.8	19
1	171460	32.81	35
1	171512	32.82	34
1	171826	32.88	25
1	171878	32.89	23
1	172192	32.95	11
1	172244	32.96	13
1	172612	33.03	15
1	172716	33.05	4
1	172768	33.06	18
1	172820	33.07	4
1	172872	33.08	11
1	172924	33.09	36
1	172976	33.1	27
1	173291	33.16	12
1	173343	33.17	1
1	173657	33.23	25
1	173709	33.24	26
1	174024	33.3	15
1	174076	33.31	21
1	174391	33.37	20
1	174443	33.38	27
1	174757	33.44	14
1	174809	33.45	11
1	175123	33.51	20
1	175175	33.52	37
1	175280	33.54	33
1	175332	33.55	10
1	175384	33.56	8
1	175436	33.57	5
1	175488	33.58	0
1	175540	33.59	2
1	175855	33.65	4
1	175907	33.66	0
1	176221	33.72	35
1	176273	33.73	30
1	176588	33.79	11
1	176640	33.8	16
1	176954	33.86	15
1	177006	33.87	32
1	177320	33.93	0
1	177372	33.94	1
1	177687	34	17
1	177739	34.01	19
1	177843	34.03	33
1	177895	34.04	6
1	177947	34.05	23
1	177999	34.06	8
1	178051	34.07	29
1	178103	34.08	18
1	178417	34.14	34
1	178469	34.15	28
1	178784	34.21	38
1	178836	34.22	10
1	179150	34.28	1
1	179202	34.29	31
1	179516	34.35	9
1	179568	34.36	31
1	179882	34.42	37
1	179934	34.43	18
1	180249	34.49	27
1	180301	34.5	24
1	180406	34.52	4
1	180458	34.53	1
1	180510	34.54	37
1	180562	34.55	33
1	180614	34.56	23
1	180666	34.57	32
1	180980	34.63	16
1	181032	34.64	27
1	181347	34.7	26
1	181399	34.71	28
1	181713	34.77	38
1	181765	34.78	20
1	182079	34.84	19
1	182131	34.85	37
1	182445	34.91	20
1	182497	34.92	34
1	182812	34.98	1
1	182864	34.99	21
1	183022	35.02	24
1	183074	35.03	24
1	183126	35.04	19
1	183178	35.05	30
1	183230	35.06	27
1	183545	35.12	14
1	183597	35.13	25
1	183911	35.19	24
1	183963	35.2	3
1	184278	35.26	29
1	184330	35.27	31
1	184644	35.33	8
1	184696	35.34	15
1	185011	35.4	7
1	185063	35.41	18
1	185168	35.43	36
1	185220	35.44	18
1	185272	35.45	8
1	185324	35.46	21
1	185376	35.47	4
1	185428	35.48	39
1	185742	35.54	13
1	185794	35.55	9
1	185899	35.57	24
1	185951	35.58	25
1	186003	35.59	33
1	186055	35.6	18
1	186107	35.61	14
1	186159	35.62	14
1	186264	35.64	35
1	186316	35.65	13
1	186368	35.66	8
1	186420	35.67	38
1	186472	35.68	14
1	186524	35.69	17
1	186838	35.75	13
1	186890	35.76	23
1	187204	35.82	23
1	187256	35.83	37
1	187570	35.89	17
1	187622	35.9	32
1	187938	35.96	24
1	187990	35.97	39
1	188304	36.03	6
1	188356	36.04	4
1	188671	36.1	39
1	188723	36.11	21
1	188827	36.13	9
1	188879	36.14	36
1	188931	36.15	24
1	188983	36.16	7
1	189035	36.17	32
1	189087	36.18	12
1	189402	36.24	1
1	189454	36.25	7
1	189770	36.31	36
1	189822	36.32	32
1	189927	36.34	3
1	189979	36.35	21
1	190031	36.36	30
1	190083	36.37	35
1	190135	36.38	17
1	190187	36.39	17
1	190292	36.41	31
1	190344	36.42	25
1	190396	36.43	39
1	190448	36.44	25
1	190500	36.45	29
1	190552	36.46	3
1	190866	36.52	20
1	190918	36.53	7