version 3
run General-0-20230527-13:27:23-71225
attr configname General
attr datetime 20230527-13:27:23
attr datetimef 20230527-132723
attr experiment General
attr inifile omnetpp.ini
attr iterationvars ""
attr iterationvarsd ""
attr iterationvarsf ""
attr measurement ""
attr network Network
attr processid 71225
attr repetition 0
attr replication #0
attr resultdir results
attr runnumber 0
attr seedset 0
config network Network
config sim-time-limit 2s
config Network.node[0].isMaster true
config Network.node[1].isMaster false
config Network.node[2].isMaster false
config record-eventlog true

vector 0 Network.node[0] "" ETV
vector 1 Network.node[0] "" ETV
0	0	0	3
0	0	0	1
0	5	0.08	3
0	5	0.08	1
0	10	0.16	2
0	10	0.16	2
0	15	0.24	1
0	15	0.24	1
0	20	0.32	2
0	20	0.32	1
0	25	0.4	1
0	25	0.4	3
0	30	0.48	2
0	30	0.48	3
0	35	0.56	3
0	35	0.56	3
0	40	0.64	1
0	40	0.64	3
0	45	0.72	3
0	45	0.72	1
0	50	0.8	1
0	50	0.8	1
0	55	0.88	2
0	55	0.88	3
0	60	0.96	1
0	60	0.96	2
0	65	1.04	2
0	65	1.04	1
0	70	1.12	3
0	70	1.12	1
0	75	1.2	1
0	75	1.2	2
0	80	1.28	2
0	80	1.28	3
0	85	1.36	2
0	85	1.36	1
0	90	1.44	3
0	90	1.44	2
0	95	1.52	1
0	95	1.52	2
0	100	1.6	2
0	100	1.6	2
0	105	1.68	3
0	105	1.68	1
0	110	1.76	3
0	110	1.76	2
0	115	1.84	2
0	115	1.84	3
0	120	1.92	2
0	120	1.92	2
0	125	2	3
0	125	2	3
1	3	0.010288478078	0.010288478078
1	4	0.030094700983	0.030094700983
1	8	0.090271988671	0.010271988671
1	9	0.110285257068	0.030285257068
1	13	0.180092284228	0.020092284228
1	14	0.180125100475	0.020125100475
1	18	0.25016843116	0.01016843116
1	19	0.250397632883	0.010397632883
1	23	0.330102620275	0.010102620275
1	24	0.340163469806	0.020163469806
1	28	0.410267447048	0.010267447048
1	29	0.430078277042	0.030078277042
1	33	0.500098734009	0.020098734009
1	34	0.510317367602	0.030317367602
1	38	0.590174506921	0.030174506921
1	39	0.590179963218	0.030179963218
1	43	0.650186327787	0.010186327787
1	44	0.670382266178	0.030382266178
1	48	0.730338363094	0.010338363094
1	49	0.750310322766	0.030310322766
1	53	0.810089660534	0.010089660534
1	54	0.810256343316	0.010256343316
1	58	0.900124739937	0.020124739937
1	59	0.91019079421	0.03019079421
1	63	0.970075634452	0.010075634452
1	64	0.980145897637	0.020145897637
1	68	1.050295559141	0.010295559141
1	69	1.060213018175	0.020213018175
1	73	1.130230530607	0.010230530607
1	74	1.150097925046	0.030097925046
1	78	1.210185835129	0.010185835129
1	79	1.220223026208	0.020223026208
1	83	1.300285599504	0.020285599504
1	84	1.310191251214	0.030191251214
1	88	1.370223813435	0.010223813435
1	89	1.380281733476	0.020281733476
1	93	1.460396370158	0.020396370158
1	94	1.470095233511	0.030095233511
1	98	1.530056085003	0.010056085003
1	99	1.540128439152	0.020128439152
1	103	1.620287642419	0.020287642419
1	104	1.620325538744	0.020325538744
1	108	1.690115243562	0.010115243562
1	109	1.710234614101	0.030234614101
1	113	1.780156806168	0.020156806168
1	114	1.790271051424	0.030271051424
1	118	1.860200226511	0.020200226511
1	119	1.870132169883	0.030132169883
1	123	1.940156805064	0.020156805064
1	124	1.940326186746	0.020326186746

