version 3
run General-0-20230626-00:01:57-8446
attr configname General
attr datetime 20230626-00:01:57
attr datetimef 20230626-000157
attr experiment General
attr inifile omnetpp.ini
attr iterationvars ""
attr iterationvarsd ""
attr iterationvarsf ""
attr measurement ""
attr network Network
attr processid 8446
attr repetition 0
attr replication #0
attr resultdir results
attr runnumber 0
attr seedset 0
config network Network
config sim-time-limit 2s
config Network.cmodule[0].isMaster true
config Network.cmodule[1].isMaster false
config Network.cmodule[2].isMaster false
config record-eventlog true

vector 0 Network.cmodule[0].app_l "" ETV
vector 1 Network.cmodule[1].app_l "" ETV
vector 2 Network.cmodule[2].app_l "" ETV
vector 3 Network.cmodule[1].app_l "" ETV
vector 4 Network.cmodule[2].app_l "" ETV
vector 5 Network.cmodule[0].app_l "" ETV
0	0	0	2
0	0	0	1
0	19	0.08	2
0	19	0.08	1
0	40	0.16	1
0	40	0.16	3
0	61	0.24	1
0	61	0.24	2
0	82	0.32	2
0	82	0.32	3
0	103	0.4	1
0	103	0.4	1
0	124	0.48	2
0	124	0.48	2
0	145	0.56	3
0	145	0.56	2
0	166	0.64	1
0	166	0.64	1
0	187	0.72	3
0	187	0.72	1
0	208	0.8	1
0	208	0.8	2
0	229	0.88	3
0	229	0.88	2
0	250	0.96	1
0	250	0.96	1
0	271	1.04	1
0	271	1.04	2
0	292	1.12	1
0	292	1.12	2
0	313	1.2	2
0	313	1.2	2
0	334	1.28	2
0	334	1.28	2
0	355	1.36	2
0	355	1.36	3
0	376	1.44	1
0	376	1.44	1
0	397	1.52	3
0	397	1.52	2
0	418	1.6	2
0	418	1.6	1
0	439	1.68	2
0	439	1.68	1
0	460	1.76	3
0	460	1.76	3
0	481	1.84	1
0	481	1.84	3
0	502	1.92	1
0	502	1.92	2
0	523	2	2
0	523	2	1
1	0	0	2
1	0	0	1
1	20	0.08	3
1	20	0.08	3
1	41	0.16	3
1	41	0.16	3
1	62	0.24	3
1	62	0.24	1
1	83	0.32	2
1	83	0.32	3
1	104	0.4	2
1	104	0.4	1
1	125	0.48	1
1	125	0.48	2
1	146	0.56	2
1	146	0.56	1
1	167	0.64	3
1	167	0.64	1
1	188	0.72	3
1	188	0.72	2
1	209	0.8	3
1	209	0.8	3
1	230	0.88	3
1	230	0.88	1
1	251	0.96	1
1	251	0.96	3
1	272	1.04	3
1	272	1.04	1
1	293	1.12	1
1	293	1.12	3
1	314	1.2	1
1	314	1.2	2
1	335	1.28	2
1	335	1.28	1
1	356	1.36	3
1	356	1.36	2
1	377	1.44	2
1	377	1.44	2
1	398	1.52	3
1	398	1.52	1
1	419	1.6	1
1	419	1.6	2
1	440	1.68	1
1	440	1.68	1
1	461	1.76	2
1	461	1.76	2
1	482	1.84	2
1	482	1.84	2
1	503	1.92	2
1	503	1.92	1
1	524	2	2
1	524	2	2
2	0	0	2
2	0	0	1
2	21	0.08	3
2	21	0.08	2
2	42	0.16	2
2	42	0.16	1
2	63	0.24	2
2	63	0.24	2
2	84	0.32	3
2	84	0.32	2
2	105	0.4	1
2	105	0.4	3
2	126	0.48	2
2	126	0.48	3
2	147	0.56	3
2	147	0.56	2
2	168	0.64	2
2	168	0.64	2
2	189	0.72	1
2	189	0.72	2
2	210	0.8	3
2	210	0.8	1
2	231	0.88	3
2	231	0.88	1
2	252	0.96	1
2	252	0.96	3
2	273	1.04	2
2	273	1.04	2
2	294	1.12	1
2	294	1.12	1
2	315	1.2	2
2	315	1.2	3
2	336	1.28	2
2	336	1.28	2
2	357	1.36	3
2	357	1.36	1
2	378	1.44	2
2	378	1.44	2
2	399	1.52	2
2	399	1.52	1
2	420	1.6	2
2	420	1.6	2
2	441	1.68	2
2	441	1.68	2
2	462	1.76	2
2	462	1.76	2
2	483	1.84	2
2	483	1.84	3
2	504	1.92	3
2	504	1.92	1
2	525	2	3
2	525	2	3
3	13	0	0
3	17	0	0
3	34	0.08	0
3	38	0.08	0
3	55	0.16	0
3	59	0.16	0
3	76	0.24	0
3	80	0.24	0
3	97	0.32	0
3	101	0.32	0
3	118	0.4	0
3	122	0.4	0
3	139	0.48	0
3	143	0.48	0
3	160	0.56	0
3	164	0.56	0
3	181	0.64	0
3	185	0.64	0
3	202	0.72	0
3	206	0.72	0
3	223	0.8	0
3	227	0.8	0
3	244	0.88	0
3	248	0.88	0
3	265	0.96	0
3	269	0.96	0
3	286	1.04	0
3	290	1.04	0
3	307	1.12	0
3	311	1.12	0
3	328	1.2	0
3	332	1.2	0
3	349	1.28	0
3	353	1.28	0
3	370	1.36	0
3	374	1.36	0
3	391	1.44	0
3	395	1.44	0
3	412	1.52	0
3	416	1.52	0
3	433	1.6	0
3	437	1.6	0
3	454	1.68	0
3	458	1.68	0
3	475	1.76	0
3	479	1.76	0
3	496	1.84	0
3	500	1.84	0
3	517	1.92	0
3	521	1.92	0
3	538	2	0
3	542	2	0
4	14	0	0
4	15	0	0
4	35	0.08	0
4	36	0.08	0
4	56	0.16	0
4	57	0.16	0
4	77	0.24	0
4	78	0.24	0
4	98	0.32	0
4	99	0.32	0
4	119	0.4	0
4	120	0.4	0
4	140	0.48	0
4	141	0.48	0
4	161	0.56	0
4	162	0.56	0
4	182	0.64	0
4	183	0.64	0
4	203	0.72	0
4	204	0.72	0
4	224	0.8	0
4	225	0.8	0
4	245	0.88	0
4	246	0.88	0
4	266	0.96	0
4	267	0.96	0
4	287	1.04	0
4	288	1.04	0
4	308	1.12	0
4	309	1.12	0
4	329	1.2	0
4	330	1.2	0
4	350	1.28	0
4	351	1.28	0
4	371	1.36	0
4	372	1.36	0
4	392	1.44	0
4	393	1.44	0
4	413	1.52	0
4	414	1.52	0
4	434	1.6	0
4	435	1.6	0
4	455	1.68	0
4	456	1.68	0
4	476	1.76	0
4	477	1.76	0
4	497	1.84	0
4	498	1.84	0
4	518	1.92	0
4	519	1.92	0
4	539	2	0
4	540	2	0
5	16	0	0
5	18	0	0
5	37	0.08	0
5	39	0.08	0
5	58	0.16	0
5	60	0.16	0
5	79	0.24	0
5	81	0.24	0
5	100	0.32	0
5	102	0.32	0
5	121	0.4	0
5	123	0.4	0
5	142	0.48	0
5	144	0.48	0
5	163	0.56	0
5	165	0.56	0
5	184	0.64	0
5	186	0.64	0
5	205	0.72	0
5	207	0.72	0
5	226	0.8	0
5	228	0.8	0
5	247	0.88	0
5	249	0.88	0
5	268	0.96	0
5	270	0.96	0
5	289	1.04	0
5	291	1.04	0
5	310	1.12	0
5	312	1.12	0
5	331	1.2	0
5	333	1.2	0
5	352	1.28	0
5	354	1.28	0
5	373	1.36	0
5	375	1.36	0
5	394	1.44	0
5	396	1.44	0
5	415	1.52	0
5	417	1.52	0
5	436	1.6	0
5	438	1.6	0
5	457	1.68	0
5	459	1.68	0
5	478	1.76	0
5	480	1.76	0
5	499	1.84	0
5	501	1.84	0
5	520	1.92	0
5	522	1.92	0
5	541	2	0
5	543	2	0

